<preamble>

<basis_specs>
===============================================================================
Nb                   Z=  41    Mass=  92.906        Charge= 0.17977+309
Lmxo=2 Lmxkb= 2    BasisType=split      Semic=T
L=0  Nsemic=1  Cnfigmx=5
          i=1  nzeta=1  polorb=0  (4s)  (semicore shell)
            splnorm:   0.15000    
               vcte:    40.000    
               rinn:    2.9846    
               qcoe:    0.0000    
               qyuk:    0.0000    
               qwid:   0.10000E-01
                rcs:    3.3129    
            lambdas:    1.0000    
          i=2  nzeta=2  polorb=0  (5s)  (to be polarized non-perturbatively)
            splnorm:   0.15000    
               vcte:    40.000    
               rinn:    8.0959    
               qcoe:    0.0000    
               qyuk:    0.0000    
               qwid:   0.10000E-01
                rcs:    8.9864      6.4319    
            lambdas:    1.0000      1.0000    
L=1  Nsemic=1  Cnfigmx=5
          i=1  nzeta=1  polorb=0  (4p)  (semicore shell)
            splnorm:   0.15000    
               vcte:    40.000    
               rinn:    3.4552    
               qcoe:    0.0000    
               qyuk:    0.0000    
               qwid:   0.10000E-01
                rcs:    3.8352    
            lambdas:    1.0000    
          i=2  nzeta=1  polorb=0  (5p)  (non-perturbative polarization shell)
            splnorm:   0.15000    
               vcte:    40.000    
               rinn:    8.0959    
               qcoe:   0.11198-314
               qyuk:   0.49407-323
               qwid:   0.11300-309
                rcs:    8.9864    
            lambdas:    1.0000    
L=2  Nsemic=0  Cnfigmx=4
          i=1  nzeta=2  polorb=0  (4d)
            splnorm:   0.15000    
               vcte:    40.000    
               rinn:    6.4371    
               qcoe:    0.0000    
               qyuk:    0.0000    
               qwid:   0.10000E-01
                rcs:    7.1523      4.6352    
            lambdas:    1.0000      1.0000    
-------------------------------------------------------------------------------
L=0  Nkbl=2  erefs: 0.17977+309 0.17977+309
L=1  Nkbl=2  erefs: 0.17977+309 0.17977+309
L=2  Nkbl=1  erefs: 0.17977+309
===============================================================================
</basis_specs>

<pseudopotential_header>
 Nb pb rel pcec
 ONCVPSP-3.2018-04-20Hamann's oncvpsp                        
 4s 2.00r r= 1.51/4p 6.00r r= 1.40/4d 4.00r r= 1.40/                    4s:4p:4d:5s:
</pseudopotential_header>
</preamble>
Nb                            # Symbol
Nb                            # Label
   41                         # Atomic number
     13.0000000000                             # Valence charge
     92.9060000000        # Mass 
     210.068681453        # Self energy 
   2   7                      # Lmax for basis, no. of nl orbitals 
   2  10 T                    # Lmax for projectors, no. of nl KB projectors, LJ projs?
# PAOs:__________________________
  0  4  1  0  2.000000   #orbital l, n, z, is_polarized, population
 500    0.6639024340076688E-02     3.312873145698267     # npts, delta, cutoff
     0.000000000000000        0.1534942715457552    
    0.6639024340076688E-02    0.1536685719454247    
    0.1327804868015338E-01    0.1542012876053052    
    0.1991707302023006E-01    0.1550886769187390    
    0.2655609736030675E-01    0.1563300289622152    
    0.3319512170038344E-01    0.1579243509461850    
    0.3983414604046013E-01    0.1598703683790597    
    0.4647317038053682E-01    0.1621665262301403    
    0.5311219472061351E-01    0.1648109904636827    
    0.5975121906069020E-01    0.1678016498725527    
    0.6639024340076688E-01    0.1711361181952626    
    0.7302926774084358E-01    0.1748117365099482    
    0.7966829208092026E-01    0.1788255759010534    
    0.8630731642099695E-01    0.1831744403949223    
    0.9294634076107364E-01    0.1878548701604508    
    0.9958536510115033E-01    0.1928631449707553    
    0.1062243894412270        0.1981952879215282    
    0.1128634137813037        0.2038470694014771    
    0.1195024381213804        0.2098140113099504    
    0.1261414624614571        0.2160913915165596    
    0.1327804868015338        0.2226742485573218    
    0.1394195111416105        0.2295573865615734    
    0.1460585354816872        0.2367353804036265    
    0.1526975598217638        0.2442025810728753    
    0.1593365841618405        0.2519531212558050    
    0.1659756085019172        0.2599809211231166    
    0.1726146328419939        0.2682796943149315    
    0.1792536571820706        0.2768429541168218    
    0.1858926815221473        0.2856640198191802    
    0.1925317058622240        0.2947360232522568    
    0.1991707302023007        0.3040519154889764    
    0.2058097545423773        0.3136044737074753    
    0.2124487788824540        0.3233863082051175    
    0.2190878032225307        0.3333898695555871    
    0.2257268275626074        0.3436074559005119    
    0.2323658519026841        0.3540312203669270    
    0.2390048762427608        0.3646531786017620    
    0.2456439005828375        0.3754652164144221    
    0.2522829249229142        0.3864590975184386    
    0.2589219492629908        0.3976264713630605    
    0.2655609736030675        0.4089588810456045    
    0.2721999979431442        0.4204477712952975    
    0.2788390222832209        0.4320844965193036    
    0.2854780466232976        0.4438603289015984    
    0.2921170709633743        0.4557664665453119    
    0.2987560953034510        0.4677940416491609    
    0.3053951196435277        0.4799341287085941    
    0.3120341439836044        0.4921777527322782    
    0.3186731683236810        0.5045158974645855    
    0.3253121926637577        0.5169395136047877    
    0.3319512170038344        0.5294395270136979    
    0.3385902413439111        0.5420068468985801    
    0.3452292656839878        0.5546323739672171    
    0.3518682900240645        0.5673070085421179    
    0.3585073143641412        0.5800216586259325    
    0.3651463387042179        0.5927672479092850    
    0.3717853630442945        0.6055347237123210    
    0.3784243873843712        0.6183150648514245    
    0.3850634117244479        0.6310992894227093    
    0.3917024360645246        0.6438784624940114    
    0.3983414604046013        0.6566437036973263    
    0.4049804847446780        0.6693861947137656    
    0.4116195090847547        0.6820971866433221    
    0.4182585334248314        0.6947680072519206    
    0.4248975577649081        0.7073900680884280    
    0.4315365821049847        0.7199548714645267    
    0.4381756064450614        0.7324540172905578    
    0.4448146307851381        0.7448792097607010    
    0.4514536551252148        0.7572222638810493    
    0.4580926794652915        0.7694751118344333    
    0.4647317038053682        0.7816298091760646    
    0.4713707281454449        0.7936785408543369    
    0.4780097524855216        0.8056136270514095    
    0.4846487768255983        0.8174275288384110    
    0.4912878011656749        0.8291128536404549    
    0.4979268255057516        0.8406623605068605    
    0.5045658498458283        0.8520689651823118    
    0.5112048741859050        0.8633257449749585    
    0.5178438985259817        0.8744259434177172    
    0.5244829228660584        0.8853629747193998    
    0.5311219472061350        0.8961304280025194    
    0.5377609715462117        0.9067220713249587    
    0.5443999958862884        0.9171318554829827    
    0.5510390202263652        0.9273539175933588    
    0.5576780445664419        0.9373825844526839    
    0.5643170689065186        0.9472123756722577    
    0.5709560932465952        0.9568380065872336    
    0.5775951175866719        0.9662543909389593    
    0.5842341419267486        0.9754566433298383    
    0.5908731662668253        0.9844400814502411    
    0.5975121906069020        0.9932002280773597    
    0.6041512149469787         1.001732812846137    
    0.6107902392870553         1.010033773792718    
    0.6174292636271320         1.018099258671169    
    0.6240682879672087         1.025925626044438    
    0.6307073123072854         1.033509446150877    
    0.6373463366473621         1.040847501547848    
    0.6439853609874387         1.047936787534259    
    0.6506243853275154         1.054774512354082    
    0.6572634096675921         1.061358097183236    
    0.6639024340076688         1.067685175902385    
    0.6705414583477456         1.073753594658480    
    0.6771804826878223         1.079561411218112    
    0.6838195070278990         1.085106894116022    
    0.6904585313679756         1.090388521602175    
    0.6970975557080523         1.095404980391233    
    0.7037365800481290         1.100155164218297    
    0.7103756043882057         1.104638172205067    
    0.7170146287282824         1.108853307040767    
    0.7236536530683590         1.112800072982272    
    0.7302926774084357         1.116478173678184    
    0.7369317017485124         1.119887509821663    
    0.7435707260885891         1.123028176636971    
    0.7502097504286658         1.125900461204957    
    0.7568487747687425         1.128504839632636    
    0.7634877991088191         1.130841974072350    
    0.7701268234488958         1.132912709595997    
    0.7767658477889725         1.134718070929959    
    0.7834048721290492         1.136259259056417    
    0.7900438964691260         1.137537647686901    
    0.7966829208092027         1.138554779613948    
    0.8033219451492793         1.139312362946809    
    0.8099609694893560         1.139812267237236    
    0.8165999938294327         1.140056519501401    
    0.8232390181695094         1.140047300144067    
    0.8298780425095861         1.139786938791117    
    0.8365170668496628         1.139277910036625    
    0.8431560911897394         1.138522829110620    
    0.8497951155298161         1.137524447473701    
    0.8564341398698928         1.136285648344693    
    0.8630731642099695         1.134809442167471    
    0.8697121885500462         1.133098962023083    
    0.8763512128901229         1.131157458993239    
    0.8829902372301995         1.128988297481275    
    0.8896292615702762         1.126594950496514    
    0.8962682859103529         1.123980994908023    
    0.9029073102504296         1.121150106673630    
    0.9095463345905063         1.118106056049986    
    0.9161853589305831         1.114852702789426    
    0.9228243832706597         1.111393991329252    
    0.9294634076107364         1.107733945978998    
    0.9361024319508131         1.103876666270394    
    0.9427414562908898         1.099826357322742    
    0.9493804806309665         1.095587225878626    
    0.9560195049710432         1.091163559865006    
    0.9626585293111198         1.086559711068827    
    0.9692975536511965         1.081780082527452    
    0.9759365779912732         1.076829123847900    
    0.9825756023313499         1.071711326564308    
    0.9892146266714266         1.066431219538150    
    0.9958536510115032         1.060993364405428    
     1.002492675351580         1.055402351075073    
     1.009131699691657         1.049662793282500    
     1.015770724031733         1.043779324202196    
     1.022409748371810         1.037756592123055    
     1.029048772711887         1.031599256189961    
     1.035687797051963         1.025311982215054    
     1.042326821392040         1.018899438561811    
     1.048965845732117         1.012366292105089    
     1.055604870072193         1.005717204269873    
     1.062243894412270        0.9989568271517282    
     1.068882918752347        0.9920897997212494    
     1.075521943092423        0.9851207441150376    
     1.082160967432500        0.9780542620153151    
     1.088799991772577        0.9708949311205149    
     1.095439016112654        0.9636473017084637    
     1.102078040452730        0.9563158932941025    
     1.108717064792807        0.9489051913831890    
     1.115356089132884        0.9414196443235958    
     1.121995113472960        0.9338636602552937    
     1.128634137813037        0.9262416041602926    
     1.135273162153114        0.9185577950133768    
     1.141912186493190        0.9108165030346563    
     1.148551210833267        0.9030219470443778    
     1.155190235173344        0.8951782919207616    
     1.161829259513421        0.8872896461610348    
     1.168468283853497        0.8793600595462070    
     1.175107308193574        0.8713935209094006    
     1.181746332533651        0.8633939560080777    
     1.188385356873727        0.8553652254996880    
     1.195024381213804        0.8473111230208913    
     1.201663405553881        0.8392353733696020    
     1.208302429893957        0.8311416307897671    
     1.214941454234034        0.8230334773579534    
     1.221580478574111        0.8149144214713880    
     1.228219502914187        0.8067878964364356    
     1.234858527254264        0.7986572591567914    
     1.241497551594341        0.7905257889203634    
     1.248136575934417        0.7823966862838198    
     1.254775600274494        0.7742730720537199    
     1.261414624614571        0.7661579863629757    
     1.268053648954647        0.7580543878413957    
     1.274692673294724        0.7499651528789857    
     1.281331697634801        0.7418930749806146    
     1.287970721974877        0.7338408642106192    
     1.294609746314954        0.7258111467257752    
     1.301248770655031        0.7178064643951447    
     1.307887794995108        0.7098292745052074    
     1.314526819335184        0.7018819495485422    
     1.321165843675261        0.6939667770946484    
     1.327804868015338        0.6860859597407624    
     1.334443892355414        0.6782416151414412    
     1.341082916695491        0.6704357761148058    
     1.347721941035568        0.6626703908239687    
     1.354360965375645        0.6549473230315241    
     1.360999989715721        0.6472683524233467    
     1.367639014055798        0.6396351750104766    
     1.374278038395875        0.6320494035847786    
     1.380917062735951        0.6245125682514243    
     1.387556087076028        0.6170261170267300    
     1.394195111416105        0.6095914165002229    
     1.400834135756181        0.6022097525151893    
     1.407473160096258        0.5948823309868554    
     1.414112184436335        0.5876102787165569    
     1.420751208776411        0.5803946442673726    
     1.427390233116488        0.5732363988927377    
     1.434029257456565        0.5661364376092810    
     1.440668281796641        0.5590955801623200    
     1.447307306136718        0.5521145721315642    
     1.453946330476795        0.5451940860782143    
     1.460585354816871        0.5383347227215188    
     1.467224379156948        0.5315370120134860    
     1.473863403497025        0.5248014146670504    
     1.480502427837102        0.5181283238622088    
     1.487141452177178        0.5115180665569528    
     1.493780476517255        0.5049709031125579    
     1.500419500857332        0.4984870277892945    
     1.507058525197408        0.4920665723539549    
     1.513697549537485        0.4857096131842333    
     1.520336573877562        0.4794161792127724    
     1.526975598217638        0.4731862607438306    
     1.533614622557715        0.4670198177780293    
     1.540253646897792        0.4609167864983353    
     1.546892671237868        0.4548770803490358    
     1.553531695577945        0.4489005893616108    
     1.560170719918022        0.4429871796094062    
     1.566809744258098        0.4371366947289160    
     1.573448768598175        0.4313489573351383    
     1.580087792938252        0.4256237701839140    
     1.586726817278329        0.4199609169803706    
     1.593365841618405        0.4143601632742278    
     1.600004865958482        0.4088212573416105    
     1.606643890298559        0.4033439310421403    
     1.613282914638635        0.3979279006437930    
     1.619921938978712        0.3925728676196980    
     1.626560963318789        0.3872785194176442    
     1.633199987658865        0.3820445302028668    
     1.639839011998942        0.3768705615752864    
     1.646478036339019        0.3717562632616652    
     1.653117060679095        0.3667012737831517    
     1.659756085019172        0.3617052210997636    
     1.666395109359249        0.3567677232317427    
     1.673034133699326        0.3518883888585436    
     1.679673158039402        0.3470668178965964    
     1.686312182379479        0.3423026020560334    
     1.692951206719556        0.3375953253768874    
     1.699590231059632        0.3329445647460974    
     1.706229255399709        0.3283498903952348    
     1.712868279739786        0.3238108663795370    
     1.719507304079862        0.3193270510394348    
     1.726146328419939        0.3148979974445547    
     1.732785352760016        0.3105232538206542    
     1.739424377100092        0.3062023639606539    
     1.746063401440169        0.3019348676197518    
     1.752702425780246        0.2977203008949783    
     1.759341450120322        0.2935581965903006    
     1.765980474460399        0.2894480845672872    
     1.772619498800476        0.2853894920816707    
     1.779258523140552        0.2813819441066780    
     1.785897547480629        0.2774249636433777    
     1.792536571820706        0.2735180720182359    
     1.799175596160782        0.2696607891685313    
     1.805814620500859        0.2658526339161602    
     1.812453644840936        0.2620931242298498    
     1.819092669181013        0.2583817774761993    
     1.825731693521089        0.2547181106604117    
     1.832370717861166        0.2511016406564930    
     1.839009742201243        0.2475318844272441    
     1.845648766541319        0.2440083592350236    
     1.852287790881396        0.2405305828429753    
     1.858926815221473        0.2370980737070880    
     1.865565839561550        0.2337103511597516    
     1.872204863901626        0.2303669355848774    
     1.878843888241703        0.2270673485847731    
     1.885482912581780        0.2238111131391104    
     1.892121936921856        0.2205977537565362    
     1.898760961261933        0.2174267966188018    
     1.905399985602010        0.2142977697176618    
     1.912039009942086        0.2112102029852425    
     1.918678034282163        0.2081636284176671    
     1.925317058622240        0.2051575801922462    
     1.931956082962316        0.2021915947785990    
     1.938595107302393        0.1992652110439077    
     1.945234131642470        0.1963779703524032    
     1.951873155982546        0.1935294166592123    
     1.958512180322623        0.1907190965991338    
     1.965151204662700        0.1879465595701557    
     1.971790229002776        0.1852113578120035    
     1.978429253342853        0.1825130464799879    
     1.985068277682930        0.1798511837142912    
     1.991707302023006        0.1772253307048135    
     1.998346326363083        0.1746350517516940    
     2.004985350703160        0.1720799143218728    
     2.011624375043237        0.1695594891016388    
     2.018263399383313        0.1670733500453841    
     2.024902423723390        0.1646210744207119    
     2.031541448063467        0.1622022428500712    
     2.038180472403543        0.1598164393489873    
     2.044819496743620        0.1574632513610482    
     2.051458521083697        0.1551422697897874    
     2.058097545423773        0.1528530890275679    
     2.064736569763850        0.1505953069815817    
     2.071375594103927        0.1483685250971143    
     2.078014618444004        0.1461723483781152    
     2.084653642784080        0.1440063854052486    
     2.091292667124157        0.1418702483515112    
     2.097931691464233        0.1397635529955117    
     2.104570715804310        0.1376859187324673    
     2.111209740144387        0.1356369685830713    
     2.117848764484464        0.1336163292003508    
     2.124487788824540        0.1316236308744881    
     2.131126813164617        0.1296585075357590    
     2.137765837504694        0.1277205967556630    
     2.144404861844770        0.1258095397464320    
     2.151043886184847        0.1239249813587323    
     2.157682910524924        0.1220665700778647    
     2.164321934865000        0.1202339580184301    
     2.170960959205077        0.1184268009176974    
     2.177599983545154        0.1166447581273786    
     2.184239007885231        0.1148874926042271    
     2.190878032225307        0.1131546708993503    
     2.197517056565384        0.1114459631464757    
     2.204156080905461        0.1097610430488528    
     2.210795105245537        0.1080995878652325    
     2.217434129585614        0.1064612783947816    
     2.224073153925691        0.1048457989611713    
     2.230712178265768        0.1032528373955016    
     2.237351202605844        0.1016820850185172    
     2.243990226945921        0.1001332366219545    
     2.250629251285997        0.9860599044924551E-01
     2.257268275626074        0.9710004817524570E-01
     2.263907299966151        0.9561511488542755E-01
     2.270546324306228        0.9415089905436717E-01
     2.277185348646304        0.9270711252376364E-01
     2.283824372986381        0.9128347047963145E-01
     2.290463397326457        0.8987969142911185E-01
     2.297102421666534        0.8849549717671658E-01
     2.303741446006611        0.8713061280024932E-01
     2.310380470346688        0.8578476662604528E-01
     2.317019494686764        0.8445769020394291E-01
     2.323658519026841        0.8314911828181651E-01
     2.330297543366918        0.8185878877989838E-01
     2.336936567706994        0.8058644276456733E-01
     2.343575592047071        0.7933182442194371E-01
     2.350214616387148        0.7809468103117612E-01
     2.356853640727224        0.7687476293756797E-01
     2.363492665067301        0.7567182352536227E-01
     2.370131689407378        0.7448561919034691E-01
     2.376770713747455        0.7331590931228517E-01
     2.383409738087531        0.7216245622720779E-01
     2.390048762427608        0.7102502519955876E-01
     2.396687786767684        0.6990338439413965E-01
     2.403326811107761        0.6879730484801171E-01
     2.409965835447838        0.6770656044228217E-01
     2.416604859787915        0.6663092787387148E-01
     2.423243884127991        0.6557018662711685E-01
     2.429882908468068        0.6452411894540129E-01
     2.436521932808145        0.6349250980272592E-01
     2.443160957148221        0.6247514687530334E-01
     2.449799981488298        0.6147182051309638E-01
     2.456439005828375        0.6048232371138626E-01
     2.463078030168452        0.5950645208236223E-01
     2.469717054508528        0.5854400382674397E-01
     2.476356078848605        0.5759477970544677E-01
     2.482995103188681        0.5665858301129001E-01
     2.489634127528758        0.5573521954077625E-01
     2.496273151868835        0.5482449756594269E-01
     2.502912176208912        0.5392622780627869E-01
     2.509551200548988        0.5304022340075375E-01
     2.516190224889065        0.5216629987993013E-01
     2.522829249229142        0.5130427513818631E-01
     2.529468273569218        0.5045396940603669E-01
     2.536107297909295        0.4961520522257512E-01
     2.542746322249372        0.4878780740806473E-01
     2.549385346589448        0.4797160303663696E-01
     2.556024370929525        0.4716642140914450E-01
     2.562663395269602        0.4637209402610034E-01
     2.569302419609679        0.4558845456084632E-01
     2.575941443949755        0.4481533883282821E-01
     2.582580468289832        0.4405258478103745E-01
     2.589219492629908        0.4330003243760663E-01
     2.595858516969985        0.4255752390153813E-01
     2.602497541310062        0.4182490331268218E-01
     2.609136565650139        0.4110201682582348E-01
     2.615775589990215        0.4038871258497372E-01
     2.622414614330292        0.3968484069778848E-01
     2.629053638670368        0.3899025321022015E-01
     2.635692663010445        0.3830480408135183E-01
     2.642331687350522        0.3762834915839429E-01
     2.648970711690599        0.3696074615189569E-01
     2.655609736030675        0.3630185461106272E-01
     2.662248760370752        0.3565153589938793E-01
     2.668887784710829        0.3500965317040485E-01
     2.675526809050905        0.3437607134364785E-01
     2.682165833390982        0.3375065708081773E-01
     2.688804857731059        0.3313327876208455E-01
     2.695443882071136        0.3252380646269108E-01
     2.702082906411212        0.3192211192968500E-01
     2.708721930751289        0.3132806855887165E-01
     2.715360955091366        0.3074155137195895E-01
     2.721999979431442        0.3016243699387944E-01
     2.728639003771519        0.2959060363037456E-01
     2.735278028111596        0.2902593104573140E-01
     2.741917052451672        0.2846830054073747E-01
     2.748556076791749        0.2791759493082509E-01
     2.755195101131826        0.2737369852441300E-01
     2.761834125471903        0.2683649710147850E-01
     2.768473149811979        0.2630587789230282E-01
     2.775112174152056        0.2578172955642679E-01
     2.781751198492132        0.2526394216179758E-01
     2.788390222832209        0.2475240716411828E-01
     2.795029247172286        0.2424701738640423E-01
     2.801668271512363        0.2374766699872726E-01
     2.808307295852439        0.2325425149816046E-01
     2.814946320192516        0.2276666768891730E-01
     2.821585344532592        0.2228481366268754E-01
     2.828224368872669        0.2180858877916579E-01
     2.834863393212746        0.2133789364677482E-01
     2.841502417552823        0.2087263010357796E-01
     2.848141441892899        0.2041270119838750E-01
     2.854780466232976        0.1995801117206617E-01
     2.861419490573053        0.1950846543900105E-01
     2.868058514913129        0.1906397056877907E-01
     2.874697539253206        0.1862443426804265E-01
     2.881336563593283        0.1818976536253052E-01
     2.887975587933359        0.1775987377932209E-01
     2.894614612273436        0.1733467052922192E-01
     2.901253636613513        0.1691406768935593E-01
     2.907892660953590        0.1649797838593740E-01
     2.914531685293666        0.1608631677720180E-01
     2.921170709633743        0.1567899803656209E-01
     2.927809733973820        0.1527593833586757E-01
     2.934448758313896        0.1487705482888251E-01
     2.941087782653973        0.1448226563492350E-01
     2.947726806994050        0.1409148982265845E-01
     2.954365831334127        0.1370464739411073E-01
     2.961004855674203        0.1332165926877880E-01
     2.967643880014280        0.1294244726794201E-01
     2.974282904354356        0.1256693409913196E-01
     2.980921928694433        0.1219504334075603E-01
     2.987560953034510        0.1182669942689701E-01
     2.994199977374587        0.1146182763226468E-01
     3.000839001714663        0.1110035405727883E-01
     3.007478026054740        0.1074220561467095E-01
     3.014117050394816        0.1038731009145669E-01
     3.020756074734893        0.1003559706765937E-01
     3.027395099074970        0.9687002012164743E-02
     3.034034123415047        0.9341475277039718E-02
     3.040673147755123        0.8998994285527202E-02
     3.047312172095200        0.8659575184358805E-02
     3.053951196435277        0.8323281035448297E-02
     3.060590220775353        0.7990225447398015E-02
     3.067229245115430        0.7660571947445197E-02
     3.073868269455507        0.7334530060954287E-02
     3.080507293795583        0.7012349203191442E-02
     3.087146318135660        0.6694311358280487E-02
     3.093785342475737        0.6380723299318378E-02
     3.100424366815814        0.6071908882362522E-02
     3.107063391155890        0.5768201761631493E-02
     3.113702415495967        0.5469938732066217E-02
     3.120341439836043        0.5177453804097651E-02
     3.126980464176120        0.4891073046370854E-02
     3.133619488516197        0.4611110187149913E-02
     3.140258512856274        0.4337862937327677E-02
     3.146897537196350        0.4071609982154271E-02
     3.153536561536427        0.3812608581012223E-02
     3.160175585876504        0.3561092711998948E-02
     3.166814610216580        0.3317271698805295E-02
     3.173453634556657        0.3081329260034797E-02
     3.180092658896734        0.2853422924762658E-02
     3.186731683236811        0.2633683762212842E-02
     3.193370707576887        0.2422216377447399E-02
     3.200009731916964        0.2219099128649365E-02
     3.206648756257040        0.2024384524653453E-02
     3.213287780597117        0.1838099763581765E-02
     3.219926804937194        0.1660247374422352E-02
     3.226565829277271        0.1490805922635404E-02
     3.233204853617347        0.1329730737516382E-02
     3.239843877957424        0.1176954611595041E-02
     3.246482902297501        0.1032388408066563E-02
     3.253121926637577        0.8959214859483880E-03
     3.259760950977654        0.7674218040061279E-03
     3.266399975317731        0.6467354717143258E-03
     3.273038999657807        0.5336853295118671E-03
     3.279678023997884        0.4280677407777776E-03
     3.286317048337961        0.3296458349243567E-03
     3.292956072678038        0.2381349194039313E-03
     3.299595097018114        0.1531677179688015E-03
     3.306234121358191        0.7419294303844296E-04
     3.312873145698267         0.000000000000000    
  0  5  1  0  1.000000   #orbital l, n, z, is_polarized, population
 500    0.1800891348949962E-01     8.986447831260309     # npts, delta, cutoff
     0.000000000000000        0.6051352872019079E-01
    0.1800891348949962E-01    0.6101413640931077E-01
    0.3601782697899923E-01    0.6251607512820724E-01