Executable      : /work/e89/e89/shreyas/siesta_env/.spack-env/view/bin/siesta
Version         : 5.2.0 (Spack) Tag: 5.2.0
Architecture    : x86_64
Compiler version: GNU-11.2.0
Compiler flags  : -fallow-argument-mismatch -O3 -march=native
Parallelisations: MPI
NetCDF support
NetCDF-4 support
NetCDF-4 MPI-IO support
Native ELPA support
 --- ELPA GPU support: nvidia-gpu
ELSI support. Solvers:
   ELPA (external, GPU support: nvidia-gpu)
   NTPoly
   OMM
   PEXSI
DFT-D3 support

Runtime information:
* Directory : /mnt/lustre/a2fs-work3/work/e89/e89/shreyas/nft/bulk/spin_z
* Running on 32 nodes in parallel.
>> Start of run:  21-JUN-2025   4:32:51

                           *********************** 
                           *  WELCOME TO SIESTA  * 
                           *********************** 

 NOTE: Siesta V5 introduces some new defaults for basis-set generation
 NOTE: which might lead to slightly different numerical results.
 NOTE: Please see the manual for full details and compatibility measures.


reinit: Reading from standard input
reinit: Dumping input in INPUT_TMP.86517
************************** Dump of input data file ****************************
SystemName          NbFeTe2 Bulk
SystemLabel         NbFeTe2
NumberOfAtoms       16
NumberOfSpecies     3
LatticeConstant 1 Ang
%block LatticeVectors
        6.414181   -0.000002   -0.000000
       -0.000003    7.794341    0.000001
       -0.000001    0.000001    8.237897
%endblock LatticeVectors
%block ChemicalSpeciesLabel
  1   41  Nb /work/e89/e89/shreyas/psml_files/Nb.psml
  2   26  Fe /work/e89/e89/shreyas/psml_files/Fe.psml
  3   52  Te /work/e89/e89/shreyas/psml_files/Te.psml
%endblock ChemicalSpeciesLabel
AtomicCoordinatesFormat Fractional
%block AtomicCoordinatesAndAtomicSpecies
    0.50000011    0.50000015    0.29745564   1
   -0.00000028    0.50000007    0.79745645   1
   -0.00000012    0.49999994    0.20254508   1
    0.50000019    0.49999995    0.70254276   1
    0.13131144    0.61388187    0.50000040   2
    0.63131160    0.38611829   -0.00000037   2
    0.86868862    0.38611821    0.50000004   2
    0.36868806    0.61388182    0.00000012   2
    0.75000030    0.19069662    0.74999973   3
    0.23572465    0.27566215    0.00000014   3
    0.76427519    0.72433796    0.00000023   3
    0.24999981    0.80930262    0.74999977   3
    0.73572496    0.72433734    0.49999976   3
    0.26427509    0.27566287    0.49999987   3
    0.24999952    0.80930378    0.25000031   3
    0.75000004    0.19069576    0.25000028   3
%endblock AtomicCoordinatesAndAtomicSpecies
XC.functional   GGA
XC.authors      PBE
Spin            spin-orbit
Charge.Mulliken end
%block DM.InitSpin
   5  +
   6  +
   7  +
   8  +
%endblock DM.InitSpin
SCF.Mix                 Hamiltonian
SCF.Mixer.Method        Pulay
SCF.Mixer.History       10
SCF.Mixer.Weight        0.1
SCF.Mixer.Kick          50
PAO.BasisSize           DZP
PAO.EnergyShift         50 meV
DM.UseSaveDM           	T
SCF.H.Tolerance         1e-4 eV
SCF.DM.Tolerace         1e-5
%block DFTU.proj
Fe   1               # number of shells of projectors
n=3    2             #  n, l
  4.5  0.9     # U(eV), J(eV)
  0.0  0.0     # rc, \omega (if zero default values are taken)
%endblock DFTU.proj
# Real space grid...
MeshCutoff           150 Ry
%block kgrid_Monkhorst_Pack
  10	0	0    0.0
  0	10	0    0.0
  0	0	10    0.0
%endblock kgrid_Monkhorst_Pack
************************** End of input data file *****************************

reinit: -----------------------------------------------------------------------
reinit: System Name: NbFeTe2 Bulk
reinit: -----------------------------------------------------------------------
reinit: System Label: NbFeTe2
reinit: -----------------------------------------------------------------------

NOTE on units for spin output: 
{S} is the spin magnetic moment, in units of the Bohr magneton,
assuming a g-factor for the electron spin of exactly 2.
The spin magnetic moment is then numerically equal to the charge inbalance,
in units of electrons, between the spin-up and -down channels.


initatom: Reading input for the pseudopotentials and atomic orbitals ----------
Species number:   1 Atomic number:   41 Label: Nb
Species number:   2 Atomic number:   26 Label: Fe
Species number:   3 Atomic number:   52 Label: Te

Ground state valence configuration (from tables):   5s01  5p00  4d04  4f00
Ground state valence configuration (from tables):   4s02  4p00  3d06  4f00
Ground state valence configuration (from tables):   5s02  5p04  5d00  4f00

---- Processing specs for species: Nb
Reading pseudopotential information in PSML from:
  /work/e89/e89/shreyas/psml_files/Nb.psml
PSML file version: 1.1
Using libxc ids:  101 130
GGA--PBE XC_GGA_X_PBE--XC_GGA_C_PBE pb
PSML uuid: 548394d0-44bc-11e8-4eec-b97effbd72e7
Semicore shell(s) with  8 electrons included in the valence for Nb

---- Processing specs for species: Fe
Reading pseudopotential information in PSML from:
  /work/e89/e89/shreyas/psml_files/Fe.psml
PSML file version: 1.1
Using libxc ids:  101 130
GGA--PBE XC_GGA_X_PBE--XC_GGA_C_PBE pb
PSML uuid: 89456970-44bf-11e8-4d23-a6a6edf19e30
Semicore shell(s) with  8 electrons included in the valence for Fe

---- Processing specs for species: Te
Reading pseudopotential information in PSML from:
  /work/e89/e89/shreyas/psml_files/Te.psml
PSML file version: 1.1
Using libxc ids:  101 130
GGA--PBE XC_GGA_X_PBE--XC_GGA_C_PBE pb
PSML uuid: edaa6890-471a-11e8-6356-ec79ff4cd4ef
Semicore shell(s) with 10 electrons included in the valence for Te

---- Pseudopotential check for Nb

Pseudopotential generated from a fully relativistic atomic calculation
There are spin-orbit semi-local pseudopotentials available

Pseudized shells:
4s( 2.00) rc: 1.51
4p( 6.00) rc: 1.40
4d( 4.00) rc: 1.40
Valence configuration for ps generation: 4s:4p:4d:5s: Total charge:  13.000000
Semicore shell(s): 4s 4p
Fallback to non-perturbative polarization scheme for Nb
Please see the manual if this is not desired in principle

---- Pseudopotential check for Fe

Pseudopotential generated from a fully relativistic atomic calculation
There are spin-orbit semi-local pseudopotentials available

Pseudized shells:
3s( 2.00) rc: 1.26
3p( 6.00) rc: 1.21
3d( 6.00) rc: 1.57
Valence configuration for ps generation: 3s:3p:3d:4s: Total charge:  16.000000
Semicore shell(s): 3s 3p
Fallback to non-perturbative polarization scheme for Fe
Please see the manual if this is not desired in principle

---- Pseudopotential check for Te

Pseudopotential generated from a fully relativistic atomic calculation
There are spin-orbit semi-local pseudopotentials available

Pseudized shells:
5s( 2.00) rc: 2.27
5p( 4.00) rc: 1.92
4d(10.00) rc: 1.81
Valence configuration for ps generation: 4d:5s:5p: Total charge:  16.000000
Semicore shell(s): 4d
Fallback to non-perturbative polarization scheme for Te
Please see the manual if this is not desired in principle
For Nb, standard SIESTA heuristics set lmxkb to 3
 (one more than the basis l, including polarization orbitals).
Use PS.lmax or PS.KBprojectors blocks to override.
For Fe, standard SIESTA heuristics set lmxkb to 3
 (one more than the basis l, including polarization orbitals).
Use PS.lmax or PS.KBprojectors blocks to override.
For Te, standard SIESTA heuristics set lmxkb to 3
 (one more than the basis l, including polarization orbitals).
Use PS.lmax or PS.KBprojectors blocks to override.
/work/e89/e89/shreyas/psml_files/Nb.psml pseudopotential only contains V_ls up to l=2 -- lmxkb reset.
/work/e89/e89/shreyas/psml_files/Fe.psml pseudopotential only contains V_ls up to l=2 -- lmxkb reset.
/work/e89/e89/shreyas/psml_files/Te.psml pseudopotential only contains V_ls up to l=2 -- lmxkb reset.

<basis_specs>
===============================================================================
Nb                   Z=  41    Mass=  92.906        Charge= 0.17977+309
Lmxo=2 Lmxkb= 2    BasisType=split      Semic=T
L=0  Nsemic=1  Cnfigmx=5
          i=1  nzeta=1  polorb=0  (4s)  (semicore shell)
            splnorm:   0.15000    
               vcte:    40.000    
               rinn:  -0.90000    
               qcoe:    0.0000    
               qyuk:    0.0000    
               qwid:   0.10000E-01
                rcs:    0.0000    
            lambdas:    1.0000    
          i=2  nzeta=2  polorb=0  (5s)  (to be polarized non-perturbatively)
            splnorm:   0.15000    
               vcte:    40.000    
               rinn:  -0.90000    
               qcoe:    0.0000    
               qyuk:    0.0000    
               qwid:   0.10000E-01
                rcs:    0.0000      0.0000    
            lambdas:    1.0000      1.0000    
L=1  Nsemic=1  Cnfigmx=5
          i=1  nzeta=1  polorb=0  (4p)  (semicore shell)
            splnorm:   0.15000    
               vcte:    40.000    
               rinn:  -0.90000    
               qcoe:    0.0000    
               qyuk:    0.0000    
               qwid:   0.10000E-01
                rcs:    0.0000    
            lambdas:    1.0000    
          i=2  nzeta=1  polorb=0  (5p)  (non-perturbative polarization shell)
            splnorm:   0.15000    
               vcte:    40.000    
               rinn:  -0.90000    
               qcoe:   0.11198-314
               qyuk:   0.49407-323
               qwid:   0.11300-309
                rcs:    0.0000    
            lambdas:    1.0000    
L=2  Nsemic=0  Cnfigmx=4
          i=1  nzeta=2  polorb=0  (4d)
            splnorm:   0.15000    
               vcte:    40.000    
               rinn:  -0.90000    
               qcoe:    0.0000    
               qyuk:    0.0000    
               qwid:   0.10000E-01
                rcs:    0.0000      0.0000    
            lambdas:    1.0000      1.0000    
-------------------------------------------------------------------------------
L=0  Nkbl=2  erefs: 0.17977+309 0.17977+309
L=1  Nkbl=2  erefs: 0.17977+309 0.17977+309
L=2  Nkbl=1  erefs: 0.17977+309
===============================================================================
</basis_specs>

Using PAO.SplitTailNorm
atom: Called for Nb                    (Z =  41)
Maximum radius (at nrval) set to   50.00000 8518

read_vps: Pseudopotential generation method:
read_vps: ONCVPSP-3.Hamann's oncvpsp                        
Valence charge in pseudo generation:   13.00000

read_vps: Pseudopotential includes a core correction:
read_vps: Pseudo-core for xc-correction

xc_check: Exchange-correlation functional:
xc_check: GGA Perdew, Burke & Ernzerhof 1996
Got Vlocal (oncv-fit) from psml data
Choosing vlocal chloc cutoff:  6.020499
qtot up to nchloc:   12.99995086
atom: Maximum radius for chlocal:    6.02050
atom: Maximum radius for r*vlocal+2*Zval:    6.02050
Reading KB projs from Nb psml data
Using lj projectors in PSML file

PSML: Kleinman-Bylander projectors: 
   l= 0   rc=  1.526996   Ekb=  2.679097
   l= 0   rc=  1.526996   Ekb= 25.890388
j- l= 1   rc=  1.421653   Ekb=  1.692988
j+ l= 1   rc=  1.421653   Ekb=  1.492224
j- l= 1   rc=  1.421653   Ekb= 15.596372
j+ l= 1   rc=  1.421653   Ekb= 15.467537
j- l= 2   rc=  1.421653   Ekb=  2.142057
j+ l= 2   rc=  1.421653   Ekb=  2.237418
j- l= 2   rc=  1.421653   Ekb=  6.646060
j+ l= 2   rc=  1.421653   Ekb=  7.445704

PSML: Total number of  Kleinman-Bylander projectors:  34
atom: -------------------------------------------------------------------------

atom: SANKEY-TYPE ORBITALS:
atom: Selected multiple-zeta basis: split     

SPLIT: Orbitals with angular momentum L= 0

SPLIT: Basis orbitals for state 4s

SPLIT: PAO cut-off radius determined from an
SPLIT: energy shift=  0.003675 Ry
Split based on tail norm

   izeta = 1
                 lambda =    1.000000
                     rc =    3.312873
                 energy =   -4.284737
                kinetic =    2.120952
    potential(screened) =   -6.405690
       potential(ionic) =  -21.112880

SPLIT: Basis orbitals for state 5s

SPLIT: PAO cut-off radius determined from an
SPLIT: energy shift=  0.003675 Ry
Split based on tail norm

   izeta = 1
                 lambda =    1.000000
                     rc =    8.986448
                 energy =   -0.294987
                kinetic =    0.663488
    potential(screened) =   -0.958475
       potential(ionic) =   -8.468659

   izeta = 2
                 rmatch =    6.431940
              splitnorm =    0.150000
                 energy =   -0.189755
                kinetic =    1.098514
    potential(screened) =   -1.288269
       potential(ionic) =  -10.061438

SPLIT: Orbitals with angular momentum L= 1

SPLIT: Basis orbitals for state 4p

SPLIT: PAO cut-off radius determined from an
SPLIT: energy shift=  0.003675 Ry
Split based on tail norm

   izeta = 1
                 lambda =    1.000000
                     rc =    3.835216
                 energy =   -2.532213
                kinetic =    3.382249
    potential(screened) =   -5.914462
       potential(ionic) =  -20.043694

SPLIT: Basis orbitals for state 5p
SPLIT: Non-perturbative polarization orbs for state 5s
SPLIT: rc(1st zeta) (re)set to: 8.9864 (expansion factor: 1.0000)
Split based on tail norm

   izeta = 1
                 lambda =    1.000000
                     rc =    8.986448
                 energy =   -0.049837
                kinetic =    0.599719
    potential(screened) =   -0.649556
       potential(ionic) =   -6.869898

SPLIT: Orbitals with angular momentum L= 2

SPLIT: Basis orbitals for state 4d

SPLIT: PAO cut-off radius determined from an
SPLIT: energy shift=  0.003675 Ry
Split based on tail norm

   izeta = 1
                 lambda =    1.000000
                     rc =    7.152290
                 energy =   -0.218991
                kinetic =    3.108471
    potential(screened) =   -3.327462
       potential(ionic) =  -14.593211

   izeta = 2
                 rmatch =    4.635179
              splitnorm =    0.150000
                 energy =   -0.154431
                kinetic =    3.938683
    potential(screened) =   -4.093114
       potential(ionic) =  -16.443762
atom: Total number of Sankey-type orbitals: 19

atm_pop: Valence configuration (for local Pseudopot. screening):
 4s( 2.00) 5s( 1.00)                                                  
 4p( 6.00) 5p( 0.00)                                                  
 4d( 4.00)                                                            
Vna: chval, zval:   13.00000  13.00000

Vna:  Cut-off radius for the neutral-atom potential:   8.986448
comcore: Pseudo-core radius Rcore=  2.813084

atom: _________________________________________________________________________

<basis_specs>
===============================================================================
Fe                   Z=  26    Mass=  55.845        Charge= 0.17977+309
Lmxo=2 Lmxkb= 2    BasisType=split      Semic=T
L=0  Nsemic=1  Cnfigmx=4
          i=1  nzeta=1  polorb=0  (3s)  (semicore shell)
            splnorm:   0.15000    
               vcte:    40.000    
               rinn:  -0.90000    
               qcoe:    0.0000    
               qyuk:    0.0000    
               qwid:   0.10000E-01
                rcs:    0.0000    
            lambdas:    1.0000    
          i=2  nzeta=2  polorb=0  (4s)  (to be polarized non-perturbatively)
            splnorm:   0.15000    
               vcte:    40.000    
               rinn:  -0.90000    
               qcoe:    0.0000    
               qyuk:    0.0000    
               qwid:   0.10000E-01
                rcs:    0.0000      0.0000    
            lambdas:    1.0000      1.0000    
L=1  Nsemic=1  Cnfigmx=4
          i=1  nzeta=1  polorb=0  (3p)  (semicore shell)
            splnorm:   0.15000    
               vcte:    40.000    
               rinn:  -0.90000    
               qcoe:    0.0000    
               qyuk:    0.0000    
               qwid:   0.10000E-01
                rcs:    0.0000    
            lambdas:    1.0000    
          i=2  nzeta=1  polorb=0  (4p)  (non-perturbative polarization shell)
            splnorm:   0.15000    
               vcte:    40.000    
               rinn:  -0.90000    
               qcoe:   0.11198-314
               qyuk:   0.49407-323
               qwid:   0.11300-309
                rcs:    0.0000    
            lambdas:    1.0000    
L=2  Nsemic=0  Cnfigmx=3
          i=1  nzeta=2  polorb=0  (3d)
            splnorm:   0.15000    
               vcte:    40.000    
               rinn:  -0.90000    
               qcoe:    0.0000    
               qyuk:    0.0000    
               qwid:   0.10000E-01
                rcs:    0.0000      0.0000    
            lambdas:    1.0000      1.0000    
-------------------------------------------------------------------------------
L=0  Nkbl=2  erefs: 0.17977+309 0.17977+309
L=1  Nkbl=2  erefs: 0.17977+309 0.17977+309
L=2  Nkbl=1  erefs: 0.17977+309
-------------------------------------------------------------------------------
L=2  n=3
                  U:   0.33074    
                  J:   0.66149E-01
               rinn:  -0.90000    
               vcte:    40.000    
             lambda:    1.0000    
              width:   0.50000E-01
                 rc:    0.0000    
            dnrm_rc:   0.90000    
===============================================================================
</basis_specs>

Using PAO.SplitTailNorm
atom: Called for Fe                    (Z =  26)
Maximum radius (at nrval) set to   50.00000 8518

read_vps: Pseudopotential generation method:
read_vps: ONCVPSP-3.Hamann's oncvpsp                        
Valence charge in pseudo generation:   16.00000

read_vps: Pseudopotential includes a core correction:
read_vps: Pseudo-core for xc-correction

xc_check: Exchange-correlation functional:
xc_check: GGA Perdew, Burke & Ernzerhof 1996
Got Vlocal (oncv-fit) from psml data
Choosing vlocal chloc cutoff:  3.831373
qtot up to nchloc:   15.99793860
atom: Maximum radius for chlocal:    3.83137
atom: Maximum radius for r*vlocal+2*Zval:    3.83137
Reading KB projs from Fe psml data
Using lj projectors in PSML file

PSML: Kleinman-Bylander projectors: 
   l= 0   rc=  1.280242   Ekb=  2.929588
   l= 0   rc=  1.280242   Ekb= 20.336184
j- l= 1   rc=  1.221004   Ekb= -1.097447
j+ l= 1   rc=  1.221004   Ekb= -0.910000
j- l= 1   rc=  1.221004   Ekb=  3.142193
j+ l= 1   rc=  1.221004   Ekb=  3.252964
j- l= 2   rc=  1.586526   Ekb=-11.037678
j+ l= 2   rc=  1.586526   Ekb=-10.997306
j- l= 2   rc=  1.586526   Ekb= -4.077919
j+ l= 2   rc=  1.586526   Ekb= -4.057755

PSML: Total number of  Kleinman-Bylander projectors:  34
atom: -------------------------------------------------------------------------

atom: SANKEY-TYPE ORBITALS:
atom: Selected multiple-zeta basis: split     

SPLIT: Orbitals with angular momentum L= 0

SPLIT: Basis orbitals for state 3s

SPLIT: PAO cut-off radius determined from an
SPLIT: energy shift=  0.003675 Ry
Split based on tail norm

   izeta = 1
                 lambda =    1.000000
                     rc =    2.583037
                 energy =   -6.901602
                kinetic =    3.179636
    potential(screened) =  -10.081237
       potential(ionic) =  -37.480184

SPLIT: Basis orbitals for state 4s

SPLIT: PAO cut-off radius determined from an
SPLIT: energy shift=  0.003675 Ry
Split based on tail norm

   izeta = 1
                 lambda =    1.000000
                     rc =    7.399995
                 energy =   -0.444439
                kinetic =    1.128782
    potential(screened) =   -1.573221
       potential(ionic) =  -14.382125

   izeta = 2
                 rmatch =    5.103222
              splitnorm =    0.150000
                 energy =   -0.327524
                kinetic =    1.986625
    potential(screened) =   -2.314149
       potential(ionic) =  -17.608151

SPLIT: Orbitals with angular momentum L= 1

SPLIT: Basis orbitals for state 3p

SPLIT: PAO cut-off radius determined from an
SPLIT: energy shift=  0.003675 Ry
Split based on tail norm

   izeta = 1
                 lambda =    1.000000
                     rc =    2.890345
                 energy =   -4.405618
                kinetic =    7.791658
    potential(screened) =  -12.197275
       potential(ionic) =  -38.806758

SPLIT: Basis orbitals for state 4p
SPLIT: Non-perturbative polarization orbs for state 4s
SPLIT: rc(1st zeta) (re)set to: 7.4000 (expansion factor: 1.0000)
Split based on tail norm

   izeta = 1
                 lambda =    1.000000
                     rc =    7.399995
                 energy =   -0.054048
                kinetic =    0.929877
    potential(screened) =   -0.983926
       potential(ionic) =  -10.926485

SPLIT: Orbitals with angular momentum L= 2

SPLIT: Basis orbitals for state 3d

SPLIT: PAO cut-off radius determined from an
SPLIT: energy shift=  0.003675 Ry
Split based on tail norm

   izeta = 1
                 lambda =    1.000000
                     rc =    4.733759
                 energy =   -0.546174
                kinetic =   10.116200
    potential(screened) =  -10.662374
       potential(ionic) =  -34.022786

   izeta = 2
                 rmatch =    2.743382
              splitnorm =    0.150000
                 energy =   -0.410726
                kinetic =   12.230456
    potential(screened) =  -12.641182
       potential(ionic) =  -37.756898
atom: Total number of Sankey-type orbitals: 19

atm_pop: Valence configuration (for local Pseudopot. screening):
 3s( 2.00) 4s( 2.00)                                                  
 3p( 6.00) 4p( 0.00)                                                  
 3d( 6.00)                                                            
Vna: chval, zval:   16.00000  16.00000

Vna:  Cut-off radius for the neutral-atom potential:   7.399995
comcore: Pseudo-core radius Rcore=  1.729904

atom: _________________________________________________________________________
Maximum radius (at nrval) set to   50.00000 8518

DFTUprojs with principal quantum number n =  3
DFTUprojs with angular momentum l =  2
DFTUprojs with U        =      0.33074
DFTUprojs with J        =      0.06615
DFTUprojs with lambda   =      1.00000
DFTUprojs with rc       =      0.00000
DFTUprojs with nnodes   =     1
DFTUprojs with nprin    =     3
DFTUprojs with nrval    =  8517
DFTUprojs with nrwf     =  8517
DFTUprojs with nrmax    = 20000
DFTUprojs with zval     =     16.00000
DFTUprojs with a        =      0.00100
DFTUprojs with b        =      0.01000
dftu_proj_gen: updating the rc to     18.940490479409 Bohr

<basis_specs>
===============================================================================
Te                   Z=  52    Mass=  127.60        Charge= 0.17977+309
Lmxo=2 Lmxkb= 2    BasisType=split      Semic=T
L=0  Nsemic=0  Cnfigmx=5
          i=1  nzeta=2  polorb=0  (5s)
            splnorm:   0.15000    
               vcte:    40.000    
               rinn:  -0.90000    
               qcoe:    0.0000    
               qyuk:    0.0000    
               qwid:   0.10000E-01
                rcs:    0.0000      0.0000    
            lambdas:    1.0000      1.0000    
L=1  Nsemic=0  Cnfigmx=5
          i=1  nzeta=2  polorb=0  (5p)  (to be polarized non-perturbatively)
            splnorm:   0.15000    
               vcte:    40.000    
               rinn:  -0.90000    
               qcoe:    0.0000    
               qyuk:    0.0000    
               qwid:   0.10000E-01
                rcs:    0.0000      0.0000    
            lambdas:    1.0000      1.0000    
L=2  Nsemic=1  Cnfigmx=5
          i=1  nzeta=1  polorb=0  (4d)  (semicore shell)
            splnorm:   0.15000    
               vcte:    40.000    
               rinn:  -0.90000    
               qcoe:    0.0000    
               qyuk:    0.0000    
               qwid:   0.10000E-01
                rcs:    0.0000    
            lambdas:    1.0000    
          i=2  nzeta=1  polorb=0  (5d)  (non-perturbative polarization shell)
            splnorm:   0.15000    
               vcte:    40.000    
               rinn:  -0.90000    
               qcoe:   0.11198-314
               qyuk:   0.49407-323
               qwid:   0.11300-309
                rcs:    0.0000    
            lambdas:    1.0000    
-------------------------------------------------------------------------------
L=0  Nkbl=1  erefs: 0.17977+309
L=1  Nkbl=1  erefs: 0.17977+309
L=2  Nkbl=2  erefs: 0.17977+309 0.17977+309
===============================================================================
</basis_specs>

Using PAO.SplitTailNorm
atom: Called for Te                    (Z =  52)
Maximum radius (at nrval) set to   50.00000 8518

read_vps: Pseudopotential generation method:
read_vps: ONCVPSP-3.Hamann's oncvpsp                        
Valence charge in pseudo generation:   16.00000

read_vps: Pseudopotential includes a core correction:
read_vps: Pseudo-core for xc-correction

xc_check: Exchange-correlation functional:
xc_check: GGA Perdew, Burke & Ernzerhof 1996
Got Vlocal (oncv-fit) from psml data
Choosing vlocal chloc cutoff:  3.575256
qtot up to nchloc:   15.99942675
atom: Maximum radius for chlocal:    3.57526
atom: Maximum radius for r*vlocal+2*Zval:    3.57526
Reading KB projs from Te psml data
Using lj projectors in PSML file

PSML: Kleinman-Bylander projectors: 
   l= 0   rc=  2.294422   Ekb=  1.571257
   l= 0   rc=  2.294422   Ekb= 12.749547
j- l= 1   rc=  1.941952   Ekb=  1.822369
j+ l= 1   rc=  1.941952   Ekb=  2.479422
j- l= 1   rc=  1.940001   Ekb= 10.232247
j+ l= 1   rc=  1.941952   Ekb= 11.939201
j- l= 2   rc=  1.828279   Ekb=-12.109268
j+ l= 2   rc=  1.828279   Ekb=-11.866367
j- l= 2   rc=  1.828279   Ekb= -3.780429
j+ l= 2   rc=  1.828279   Ekb= -3.663335

PSML: Total number of  Kleinman-Bylander projectors:  34
atom: -------------------------------------------------------------------------

atom: SANKEY-TYPE ORBITALS:
atom: Selected multiple-zeta basis: split     

SPLIT: Orbitals with angular momentum L= 0

SPLIT: Basis orbitals for state 5s

SPLIT: PAO cut-off radius determined from an
SPLIT: energy shift=  0.003675 Ry
Split based on tail norm

   izeta = 1
                 lambda =    1.000000
                     rc =    5.523551
                 energy =   -1.104618
                kinetic =    0.692887
    potential(screened) =   -1.797505
       potential(ionic) =  -16.033046

   izeta = 2
                 rmatch =    3.721573
              splitnorm =    0.150000
                 energy =   -0.608320
                kinetic =    1.526749
    potential(screened) =   -2.135068
       potential(ionic) =  -17.525650

SPLIT: Orbitals with angular momentum L= 1

SPLIT: Basis orbitals for state 5p

SPLIT: PAO cut-off radius determined from an
SPLIT: energy shift=  0.003675 Ry
Split based on tail norm

   izeta = 1
                 lambda =    1.000000
                     rc =    7.137980
                 energy =   -0.433143
                kinetic =    0.856075
    potential(screened) =   -1.289218
       potential(ionic) =  -13.351430

   izeta = 2
                 rmatch =    4.883118
              splitnorm =    0.150000
                 energy =   -0.328377
                kinetic =    1.259496
    potential(screened) =   -1.587873
       potential(ionic) =  -15.095785

SPLIT: Orbitals with angular momentum L= 2

SPLIT: Basis orbitals for state 4d

SPLIT: PAO cut-off radius determined from an
SPLIT: energy shift=  0.003675 Ry
Split based on tail norm

   izeta = 1
                 lambda =    1.000000
                     rc =    3.201794
                 energy =   -3.051455
                kinetic =   10.963488
    potential(screened) =  -14.014942
       potential(ionic) =  -34.612552

SPLIT: Basis orbitals for state 5d
SPLIT: Non-perturbative polarization orbs for state 5p
SPLIT: rc(1st zeta) (re)set to: 7.1380 (expansion factor: 1.0000)
Split based on tail norm

   izeta = 1
                 lambda =    1.000000
                     rc =    7.137980
                 energy =    0.272903
                kinetic =    1.062087
    potential(screened) =   -0.789184
       potential(ionic) =   -9.226723
atom: Total number of Sankey-type orbitals: 18

atm_pop: Valence configuration (for local Pseudopot. screening):
 5s( 2.00)                                                            
 5p( 4.00)                                                            
 4d(10.00) 5d( 0.00)                                                  
Vna: chval, zval:   16.00000  16.00000

Vna:  Cut-off radius for the neutral-atom potential:   7.137980
comcore: Pseudo-core radius Rcore=  2.793391

atom: _________________________________________________________________________

prinput: Basis input 

PAO.BasisType split     

%block ChemicalSpeciesLabel
    1   41 Nb                      # Species index, atomic number, species label
    2   26 Fe                      # Species index, atomic number, species label
    3   52 Te                      # Species index, atomic number, species label
%endblock ChemicalSpeciesLabel

%block PAO.Basis                 # Define Basis set
# WARNING: This information might be incomplete!
Nb                    5                    # Species label, number of l-shells
 n=4   0   1                         # n, l, Nzeta 
   3.313   
   1.000   
 n=5   0   2                         # n, l, Nzeta 
   8.986      6.432   
   1.000      1.000   
 n=4   1   1                         # n, l, Nzeta 
   3.835   
   1.000   
 n=5   1   1                         # n, l, Nzeta 
   8.986   
   1.000   
 n=4   2   2                         # n, l, Nzeta 
   7.152      4.635   
   1.000      1.000   
Fe                    5                    # Species label, number of l-shells
 n=3   0   1                         # n, l, Nzeta 
   2.583   
   1.000   
 n=4   0   2                         # n, l, Nzeta 
   7.400      5.103   
   1.000      1.000   
 n=3   1   1                         # n, l, Nzeta 
   2.890   
   1.000   
 n=4   1   1                         # n, l, Nzeta 
   7.400   
   1.000   
 n=3   2   2                         # n, l, Nzeta 
   4.734      2.743   
   1.000      1.000   
Te                    4                    # Species label, number of l-shells
 n=5   0   2                         # n, l, Nzeta 
   5.524      3.722   
   1.000      1.000   
 n=5   1   2                         # n, l, Nzeta 
   7.138      4.883   
   1.000      1.000   
 n=4   2   1                         # n, l, Nzeta 
   3.202   
   1.000   
 n=5   2   1                         # n, l, Nzeta 
   7.138   
   1.000   
%endblock PAO.Basis

prinput: ----------------------------------------------------------------------

Dumping basis to NetCDF file Nb.ion.nc
Dumping basis to NetCDF file Fe.ion.nc
Dumping basis to NetCDF file Te.ion.nc
coor:   Atomic-coordinates input format  =     Fractional

siesta: Atomic coordinates (Bohr) and species
siesta:      6.06052   7.36459   4.63060  1        1
siesta:     -0.00001   7.36459  12.41430  1        2
siesta:     -0.00000   7.36458   3.15309  1        3
siesta:      6.06052   7.36458  10.93674  1        4
siesta:      1.59163   9.04197   7.78369  2        5
siesta:      7.65215   5.68720  -0.00001  2        6
siesta:     10.52941   5.68720   7.78369  2        7
siesta:      4.46888   9.04197   0.00000  2        8
siesta:      9.09079   2.80880  11.67552  3        9
siesta:      2.85723   4.06027   0.00000  3       10
siesta:      9.26381  10.66889   0.00000  3       11
siesta:      3.03025  11.92036  11.67552  3       12
siesta:      8.91775  10.66889   7.78368  3       13
siesta:      3.20329   4.06029   7.78368  3       14
siesta:      3.03025  11.92037   3.89185  3       15
siesta:      9.09078   2.80879   3.89185  3       16

siesta: System type = bulk      

initatomlists: Number of atoms, orbitals, and projectors:     16   296   544

siesta: ******************** Simulation parameters ****************************
siesta:
siesta: The following are some of the parameters of the simulation.
siesta: A complete list of the parameters used, including default values,
siesta: can be found in file out.fdf
siesta:
redata: Spin configuration                          = spin-orbit+offsite
redata: Number of spin components                   = 8
redata: Time-Reversal Symmetry                      = F
redata: Spin spiral                                 = F
redata: Long output                                 =   F
redata: Number of Atomic Species                    =        3
redata: Charge density info will appear in .RHO file
redata: Write Mulliken charges (when)               = end
redata: Write Mulliken Pop.                         = Atomic and Orbital charges
redata: Write Hirshfeld charges (when)              = none
redata: Write Voronoi charges (when)                = none
redata: Write spin charge (when)                    = scf
redata: Matel table size (NRTAB)                    =     1024
redata: Mesh Cutoff                                 =   150.0000 Ry
redata: Net charge of the system                    =     0.0000 |e|
redata: Min. number of SCF Iter                     =        0
redata: Max. number of SCF Iter                     =     1000
redata: SCF convergence failure will abort job
redata: SCF mix quantity                            = Hamiltonian
redata: Mix DM or H after convergence               =   F
redata: Recompute H after scf cycle                 =   F
redata: Mix DM in first SCF step                    =   T
redata: Write Pulay info on disk                    =   F
redata: New DM Occupancy tolerance                  = 0.000000000001
redata: No kicks to SCF
redata: DM Mixing Weight for Kicks                  =     0.5000
redata: Require Harris convergence for SCF          =   F
redata: Harris energy tolerance for SCF             =     0.000100 eV
redata: Require DM convergence for SCF              =   T
redata: DM tolerance for SCF                        =     0.000100
redata: Require EDM convergence for SCF             =   F
redata: EDM tolerance for SCF                       =     0.001000 eV
redata: Require H convergence for SCF               =   T
redata: Hamiltonian tolerance for SCF               =     0.000100 eV
redata: Require (free) Energy convergence for SCF   =   F
redata: (free) Energy tolerance for SCF             =     0.000100 eV
redata: Using DFT-D3 dispersion                     =   F
redata: Using Saved Data (generic)                  =   F
redata: Use continuation files for DM               =   T
redata: Neglect nonoverlap interactions             =   F
redata: Method of Calculation                       = Diagonalization
redata: Electronic Temperature                      =   299.9863 K
redata: Fix the spin of the system                  =   F
redata: Split SR and SO contributions               =   F
redata: Max. number of TDED Iter                    =        1
redata: Number of TDED substeps                     =        3
redata: Dynamics option                             = Single-point calculation
mix.SCF: Pulay mixing                            = Pulay
mix.SCF:    Variant                              = stable
mix.SCF:    History steps                        = 10
mix.SCF:    Linear mixing weight                 =     0.100000
mix.SCF:    Mixing weight                        =     0.100000
mix.SCF:    SVD condition                        = 0.1000E-07
mix.SCF:    Restart steps                        = 49
mix.SCF:    Restart save steps                   = 1
mix.SCF:    Number of mixing iterations          = 49
mix.SCF:    Following mixer                      = Linear-Kick
mix.SCF: Linear mixing                           = Linear-Kick
mix.SCF:    Mixing weight                        =     0.500000
mix.SCF:    Number of mixing iterations          = 1
mix.SCF:    Following mixer                      = Pulay
mix.SCF: Spin-component mixing                   all
redata: Save all siesta data in one NC              =   F
redata: ***********************************************************************

%block SCF.Mixers
  Pulay
  Linear-Kick
%endblock SCF.Mixers

%block SCF.Mixer.Pulay
  # Mixing method
  method pulay
  variant stable

  # Mixing options
  weight 0.1000
  weight.linear 0.1000
  history 10
  restart 49
  restart.save 1

  # Continuation options
  iterations 49
  next Linear-Kick
%endblock SCF.Mixer.Pulay

%block SCF.Mixer.Linear-Kick
  # Mixing method
  method linear

  # Mixing options
  weight 0.5000

  # Continuation options
  iterations 1
  next Pulay
%endblock SCF.Mixer.Linear-Kick

DM_history_depth set to one: no extrapolation allowed by default for geometry relaxation
Size of DM history Fstack: 1
Total number of electrons:   244.000000
Total ionic charge:   244.000000

* ProcessorY, Blocksize:    4   9


* Orbital distribution balance (max,min):    17     9

k-point displ. along   1 input, could be:     0.00    0.50
k-point displ. along   2 input, could be:     0.00    0.50
k-point displ. along   3 input, could be:     0.00    0.50

Time-reversal symmetry not used.

siesta: k-grid: Number of k-points = 1000
siesta: k-points from Monkhorst-Pack grid
siesta: k-cutoff (effective) =    32.071 Ang
siesta: k-point supercell and displacements
siesta: k-grid:    10     0     0      0.000
siesta: k-grid:     0    10     0      0.000
siesta: k-grid:     0     0    10      0.000

diag: Algorithm                                     = D&C
diag: Parallel over k                               =   F
diag: Use parallel 2D distribution                  =   T
diag: Parallel block-size                           = 9
diag: Parallel distribution                         =     4 x     8
diag: Used triangular part                          = Lower
diag: Absolute tolerance                            =  0.100E-15
diag: Orthogonalization factor                      =  0.100E-05
diag: Memory factor                                 =  1.0000

superc: Internal auxiliary supercell:     5 x     3 x     5  =      75
superc: Number of atoms, orbitals, and projectors:   1200  22200  40800


ts: **************************************************************
ts: Save H and S matrices                           =    F
ts: Save DM and EDM matrices                        =    F
ts: Only save the overlap matrix S                  =    F
ts: **************************************************************

************************ Begin: TS CHECKS AND WARNINGS ************************
************************ End: TS CHECKS AND WARNINGS **************************


                     ====================================
                        Single-point calculation
                     ====================================

superc: Internal auxiliary supercell:     5 x     3 x     5  =      75
superc: Number of atoms, orbitals, and projectors:   1200  22200  40800

outcell: Unit cell vectors (Ang):
        6.414181   -0.000002   -0.000000
       -0.000003    7.794341    0.000001
       -0.000001    0.000001    8.237897

outcell: Cell vector modules (Ang)   :    6.414181    7.794341    8.237897
outcell: Cell angles (23,13,12) (deg):     90.0000     90.0000     90.0000
outcell: Cell volume (Ang**3)        :    411.8480
<dSpData1D:S at geom step 0
  <sparsity:sparsity for geom step 0
    nrows_g=296 nrows=17 sparsity=.2308 nnzs=20221, refcount: 9>
  <dData1D:(new from dSpData1D) n=20221, refcount: 1>
refcount: 1>
new_DM -- step:     1
Initializing Density Matrix...

Attempting to read DM from file... Failed...
DM filled with atomic data (user-defined):
<dSpData2D:DM initialized from atoms
  <sparsity:sparsity for geom step 0
    nrows_g=296 nrows=17 sparsity=.2308 nnzs=20221, refcount: 10>
  <dData2D:DM n=20221 m=8, refcount: 1>
refcount: 1>

InitMesh: MESH = 48 x 60 x 64 = 184320
InitMesh: Mesh cutoff (required, used) =   150.000   154.775 Ry
New grid distribution [1]: sub = 2
New grid distribution [2]: sub = 2
New grid distribution [3]: sub = 2
Setting up quadratic distribution...

stepf: Fermi-Dirac step function

siesta: Program's energy decomposition (eV):
siesta: Ebs     =     -8312.119288
siesta: Eions   =     56011.441932
siesta: Ena     =      6982.284237
siesta: Ekin    =     20174.693717
siesta: Enl(+so)=     -6216.057121
siesta: Eso(nil)=         0.000000
siesta: Edftu   =         9.019860
siesta: DEna    =       479.537492
siesta: DUscf   =        30.720089
siesta: DUext   =         0.000000
siesta: Ex      =     -8143.585726
siesta: Ec      =      -505.126419
siesta: Exc     =     -8648.712145
siesta: EbV     =         0.000000
siesta: eta*DQ  =         0.000000
siesta: Emadel  =         0.000000
siesta: Emeta   =         0.000000
siesta: Emolmec =         0.000000
siesta: Ekinion =         0.000000
siesta: Eharris =    -43113.412953
siesta: Etot    =    -43199.955803
siesta: FreeEng =    -43199.979143

        iscf     Eharris(eV)        E_KS(eV)     FreeEng(eV)     dDmax    Ef(eV) dHmax(eV)
   scf:    1   -43113.412953   -43199.955803   -43199.979143  0.831443 -3.097332 13.827760
     spin moment: {S} , |S| = {   -0.00000   -0.00000   13.08586 }    13.08586
timer: Routine,Calls,Time,% = IterSCF        1     213.307  69.30
   scf:    2   -43222.835157   -43216.327895   -43216.358784  0.237991 -3.681152  5.658942
     spin moment: {S} , |S| = {    0.00000   -0.00000   11.47302 }    11.47302
   scf:    3   -43220.196172   -43218.783340   -43218.813899  0.049474 -3.880223  2.394363
     spin moment: {S} , |S| = {    0.00000   -0.00000   11.49521 }    11.49521
   scf:    4   -43220.191079   -43219.541780   -43219.570938  0.048321 -3.977139  1.517230
     spin moment: {S} , |S| = {    0.00000   -0.00000   11.25639 }    11.25639
   scf:    5   -43221.218932   -43220.539521   -43220.563728  0.118451 -4.120546  0.548156
     spin moment: {S} , |S| = {    0.00000   -0.00000   10.79558 }    10.79558
   scf:    6   -43220.640376   -43220.647160   -43220.665577  0.066517 -4.215414  1.420818
     spin moment: {S} , |S| = {    0.00000   -0.00000   10.18388 }    10.18388
   scf:    7   -43220.848717   -43220.761081   -43220.779135  0.007899 -4.190192  0.771764
     spin moment: {S} , |S| = {    0.00000   -0.00000   10.17832 }    10.17832
   scf:    8   -43220.848804   -43220.807569   -43220.825267  0.007242 -4.181794  0.430749
     spin moment: {S} , |S| = {    0.00000   -0.00000   10.14228 }    10.14228
   scf:    9   -43220.973031   -43220.890995   -43220.908398  0.032138 -4.176265  0.617542
     spin moment: {S} , |S| = {    0.00000   -0.00000    9.90826 }     9.90826
   scf:   10   -43220.944582   -43220.938972   -43220.957650  0.034647 -4.189159  0.321672
     spin moment: {S} , |S| = {    0.00000   -0.00000    9.72808 }     9.72808
   scf:   11   -43221.058875   -43221.002843   -43221.021068  0.032359 -4.223897  0.421123
     spin moment: {S} , |S| = {    0.00000   -0.00000    9.56868 }     9.56868
   scf:   12   -43220.969502   -43221.003892   -43221.021488  0.022707 -4.197704  0.527671
     spin moment: {S} , |S| = {    0.00000   -0.00000    9.45110 }     9.45110
   scf:   13   -43221.303226   -43221.137159   -43221.153632  0.055310 -4.228327  0.256351
     spin moment: {S} , |S| = {    0.00000   -0.00000    9.37294 }     9.37294
   scf:   14   -43221.209583   -43221.167488   -43221.183855  0.027217 -4.235118  0.140004
     spin moment: {S} , |S| = {    0.00000   -0.00000    9.31160 }     9.31160
   scf:   15   -43221.163774   -43221.166713   -43221.183108  0.004333 -4.235612  0.157249
     spin moment: {S} , |S| = {    0.00000   -0.00000    9.32728 }     9.32728
   scf:   16   -43221.213234   -43221.185361   -43221.201599  0.024907 -4.232147  0.096801
     spin moment: {S} , |S| = {    0.00000   -0.00000    9.34422 }     9.34422
   scf:   17   -43221.195049   -43221.189723   -43221.205891  0.009517 -4.232150  0.077502
     spin moment: {S} , |S| = {    0.00000   -0.00000    9.35191 }     9.35191
   scf:   18   -43221.200575   -43221.195089   -43221.211173  0.011700 -4.232239  0.059447
     spin moment: {S} , |S| = {    0.00000   -0.00000    9.35802 }     9.35802
   scf:   19   -43221.198856   -43221.197209   -43221.213260  0.005274 -4.232427  0.046723
     spin moment: {S} , |S| = {    0.00000   -0.00000    9.37231 }     9.37231
   scf:   20   -43221.204316   -43221.199972   -43221.215950  0.012542 -4.232077  0.013451
     spin moment: {S} , |S| = {   -0.00000   -0.00000    9.40236 }     9.40236
   scf:   21   -43221.200206   -43221.200084   -43221.216054  0.000593 -4.232369  0.009708
     spin moment: {S} , |S| = {   -0.00000   -0.00000    9.40354 }     9.40354
   scf:   22   -43221.200201   -43221.200194   -43221.216150  0.000935 -4.232882  0.012823
     spin moment: {S} , |S| = {   -0.00000   -0.00000    9.40597 }     9.40597
   scf:   23   -43221.200201   -43221.200475   -43221.216416  0.005206 -4.232472  0.015439
     spin moment: {S} , |S| = {   -0.00000   -0.00000    9.41501 }     9.41501
   scf:   24   -43221.200870   -43221.200289   -43221.216228  0.002135 -4.232509  0.007038
     spin moment: {S} , |S| = {   -0.00000   -0.00000    9.41502 }     9.41502
   scf:   25   -43221.200335   -43221.200335   -43221.216262  0.000854 -4.232732  0.004730
     spin moment: {S} , |S| = {   -0.00000   -0.00000    9.41969 }     9.41969
   scf:   26   -43221.200270   -43221.200407   -43221.216325  0.000897 -4.232834  0.004533
     spin moment: {S} , |S| = {   -0.00000   -0.00000    9.42345 }     9.42345
   scf:   27   -43221.200382   -43221.200454   -43221.216366  0.000482 -4.232776  0.003048
     spin moment: {S} , |S| = {   -0.00000   -0.00000    9.42513 }     9.42513
   scf:   28   -43221.200450   -43221.200493   -43221.216401  0.000275 -4.232753  0.002526
     spin moment: {S} , |S| = {   -0.00000   -0.00000    9.42530 }     9.42530
   scf:   29   -43221.200537   -43221.200535   -43221.216439  0.000340 -4.232827  0.002208
     spin moment: {S} , |S| = {   -0.00000   -0.00000    9.42384 }     9.42384
   scf:   30   -43221.200540   -43221.200546   -43221.216449  0.000161 -4.232821  0.001888
     spin moment: {S} , |S| = {   -0.00000   -0.00000    9.42415 }     9.42415
   scf:   31   -43221.200541   -43221.200560   -43221.216460  0.000264 -4.232795  0.001564
     spin moment: {S} , |S| = {   -0.00000   -0.00000    9.42471 }     9.42471
   scf:   32   -43221.200578   -43221.200579   -43221.216478  0.000277 -4.232742  0.001238
     spin moment: {S} , |S| = {   -0.00000   -0.00000    9.42486 }     9.42486
   scf:   33   -43221.200604   -43221.200592   -43221.216489  0.000259 -4.232715  0.000895
     spin moment: {S} , |S| = {   -0.00000   -0.00000    9.42458 }     9.42458
   scf:   34   -43221.200616   -43221.200590   -43221.216485  0.000297 -4.232729  0.000650
     spin moment: {S} , |S| = {   -0.00000   -0.00000    9.42418 }     9.42418
   scf:   35   -43221.200596   -43221.200589   -43221.216484  0.000075 -4.232742  0.000562
     spin moment: {S} , |S| = {   -0.00000   -0.00000    9.42415 }     9.42415
   scf:   36   -43221.200601   -43221.200599   -43221.216492  0.000146 -4.232765  0.000479
     spin moment: {S} , |S| = {   -0.00000   -0.00000    9.42434 }     9.42434
   scf:   37   -43221.200612   -43221.200611   -43221.216502  0.000187 -4.232785  0.000424
     spin moment: {S} , |S| = {   -0.00000   -0.00000    9.42447 }     9.42447
   scf:   38   -43221.200612   -43221.200615   -43221.216505  0.000057 -4.232785  0.000418
     spin moment: {S} , |S| = {   -0.00000   -0.00000    9.42456 }     9.42456
   scf:   39   -43221.200629   -43221.200633   -43221.216522  0.000232 -4.232782  0.000278
     spin moment: {S} , |S| = {    0.00000   -0.00000    9.42468 }     9.42468
   scf:   40   -43221.200639   -43221.200638   -43221.216526  0.000054 -4.232780  0.000221
     spin moment: {S} , |S| = {    0.00000   -0.00000    9.42467 }     9.42467
   scf:   41   -43221.200647   -43221.200641   -43221.216529  0.000052 -4.232780  0.000138
     spin moment: {S} , |S| = {    0.00000   -0.00000    9.42452 }     9.42452
   scf:   42   -43221.200647   -43221.200644   -43221.216531  0.000042 -4.232777  0.000102
     spin moment: {S} , |S| = {    0.00000   -0.00000    9.42443 }     9.42443
   scf:   43   -43221.200644   -43221.200644   -43221.216531  0.000016 -4.232776  0.000092
     spin moment: {S} , |S| = {    0.00000   -0.00000    9.42445 }     9.42445

SCF Convergence by DM+H criterion
max |DM_out - DM_in|         :     0.0000163416
max |H_out - H_in|      (eV) :     0.0000922282
SCF cycle converged after 43 iterations

Using DM_out to compute the final energy and forces

siesta: E_KS(eV) =           -43221.2006

siesta: E_KS - E_eggbox =    -43221.2006

siesta: Atomic forces (eV/Ang):
----------------------------------------
   Tot   -0.000002    0.000007   -0.000002
----------------------------------------
   Max    0.009371
   Res    0.003402    sqrt( Sum f_i^2 / 3N )
----------------------------------------
   Max    0.009371    constrained

Stress tensor Voigt[x,y,z,yz,xz,xy] (kbar):        0.54        0.41        0.22       -0.00       -0.00       -0.00
(Free)E + p*V (eV/cell)   -43221.3176
Target enthalpy (eV/cell)   -43221.2165

siesta: Program's energy decomposition (eV):
siesta: Ebs     =     -7624.613241
siesta: Eions   =     56011.441932
siesta: Ena     =      6982.284237
siesta: Ekin    =     20631.725518
siesta: Enl(+so)=     -6318.625605
siesta: Eso(nil)=         0.000000
siesta: Edftu   =         9.385517
siesta: DEna    =       194.006685
siesta: DUscf   =         4.839571
siesta: DUext   =         0.000000
siesta: Ex      =     -8207.094656
siesta: Ec      =      -506.279979
siesta: Exc     =     -8713.374636
siesta: EbV     =         0.000000
siesta: eta*DQ  =         0.000000
siesta: Emadel  =         0.000000
siesta: Emeta   =         0.000000
siesta: Emolmec =         0.000000
siesta: Ekinion =         0.000000
siesta: Eharris =    -43221.200644
siesta: Etot    =    -43221.200644
siesta: FreeEng =    -43221.216531

siesta: Final energy (eV):
siesta:  Band Struct. =   -7624.613241
siesta:       Kinetic =   20631.725518
siesta:       Hartree =   15015.002521
siesta:         Edftu =       9.385517
siesta:      Eso(nil) =       0.000000
siesta:    Ext. field =       0.000000
siesta:         Exch. =   -8207.094656
siesta:         Corr. =    -506.279979
siesta:     Bulk bias =       0.000000
siesta:   Exch.-corr. =   -8713.374636
siesta:  Ion-electron =  -51972.738243
siesta:       Ion-ion =  -18191.201321
siesta:       Ekinion =       0.000000
siesta: D3 dispersion =       0.000000
siesta:         Total =  -43221.200644
siesta:         Fermi =      -4.232776

siesta: Stress tensor (static) (eV/Ang**3):
siesta:     0.000339   -0.000001   -0.000000
siesta:    -0.000001    0.000258   -0.000000
siesta:    -0.000000   -0.000000    0.000139

siesta: Cell volume =        411.848009 Ang**3

siesta: Pressure (static):
siesta:                Solid            Molecule  Units
siesta:          -0.00000267         -0.00000277  Ry/Bohr**3
siesta:          -0.00024534         -0.00025422  eV/Ang**3
siesta:          -0.39308393         -0.40731165  kBar
(Free)E+ p_basis*V_orbitals  =      -43203.920280
(Free)Eharris+ p_basis*V_orbitals  =      -43203.920280

mulliken: Atomic and Orbital Populations:

Species: Nb                  

Atom      Orb        Charge      Spin       Svec
----------------------------------------------------------------
    1  1 4s         1.93164   0.00229      0.000  -0.000  -0.002
    1  2 5s        -0.02560   0.04143      0.000  -0.000  -0.041
    1  3 5s         0.47809   0.00415     -0.000   0.000  -0.004
    1  4 4py        1.94837   0.00200      0.000  -0.000  -0.002
    1  5 4pz        1.94000   0.00438      0.000  -0.000  -0.004
    1  6 4px        1.94454   0.00277      0.000  -0.000  -0.003
    1  7 5py        0.29012   0.02081      0.000  -0.000  -0.021
    1  8 5pz        0.30787   0.03569     -0.000  -0.000  -0.036
    1  9 5px        0.25664   0.01975      0.000  -0.000  -0.020
    1 10 4dxy       0.77758   0.05249      0.000  -0.000  -0.052
    1 11 4dyz       0.79902   0.21800      0.000  -0.000  -0.218
    1 12 4dz2       1.18784   0.14017      0.000  -0.000  -0.140
    1 13 4dxz       0.94960   0.24262      0.000  -0.000  -0.243
    1 14 4dx2-y2    1.00426   0.14197     -0.000  -0.000  -0.142
    1 15 4dxy      -0.01349   0.00320      0.000   0.000   0.003
    1 16 4dyz      -0.07049   0.04437     -0.000   0.000   0.044
    1 17 4dz2      -0.18152   0.04504      0.000   0.000   0.045
    1 18 4dxz      -0.20463   0.08343     -0.000   0.000   0.083
    1 19 4dx2-y2   -0.09218   0.03795      0.000  -0.000   0.038
    1     Total    13.22766   0.71453      0.000  -0.000  -0.715

    2  1 4s         1.93164   0.00229     -0.000  -0.000  -0.002
    2  2 5s        -0.02561   0.04144     -0.000   0.000  -0.041
    2  3 5s         0.47810   0.00415     -0.000  -0.000  -0.004
    2  4 4py        1.94837   0.00200     -0.000  -0.000  -0.002
    2  5 4pz        1.94000   0.00438     -0.000  -0.000  -0.004
    2  6 4px        1.94454   0.00277     -0.000  -0.000  -0.003
    2  7 5py        0.29012   0.02081     -0.000  -0.000  -0.021
    2  8 5pz        0.30787   0.03569      0.000  -0.000  -0.036
    2  9 5px        0.25664   0.01975     -0.000  -0.000  -0.020
    2 10 4dxy       0.77758   0.05249     -0.000  -0.000  -0.052
    2 11 4dyz       0.79902   0.21800     -0.000  -0.000  -0.218
    2 12 4dz2       1.18784   0.14017     -0.000  -0.000  -0.140
    2 13 4dxz       0.94960   0.24263     -0.000  -0.000  -0.243
    2 14 4dx2-y2    1.00425   0.14197      0.000  -0.000  -0.142
    2 15 4dxy      -0.01348   0.00320     -0.000   0.000   0.003
    2 16 4dyz      -0.07049   0.04437      0.000   0.000   0.044
    2 17 4dz2      -0.18151   0.04504     -0.000   0.000   0.045
    2 18 4dxz      -0.20463   0.08343      0.000   0.000   0.083
    2 19 4dx2-y2   -0.09218   0.03795     -0.000  -0.000   0.038
    2     Total    13.22766   0.71455     -0.000  -0.000  -0.715

    3  1 4s         1.93164   0.00229     -0.000  -0.000  -0.002
    3  2 5s        -0.02561   0.04144      0.000  -0.000  -0.041
    3  3 5s         0.47809   0.00415      0.000  -0.000  -0.004
    3  4 4py        1.94837   0.00200     -0.000  -0.000  -0.002
    3  5 4pz        1.94000   0.00438     -0.000  -0.000  -0.004
    3  6 4px        1.94454   0.00277     -0.000  -0.000  -0.003
    3  7 5py        0.29012   0.02081      0.000  -0.000  -0.021
    3  8 5pz        0.30787   0.03569      0.000  -0.000  -0.036
    3  9 5px        0.25664   0.01975     -0.000  -0.000  -0.020
    3 10 4dxy       0.77758   0.05249      0.000  -0.000  -0.052
    3 11 4dyz       0.79902   0.21800     -0.000  -0.000  -0.218
    3 12 4dz2       1.18784   0.14017     -0.000  -0.000  -0.140
    3 13 4dxz       0.94960   0.24262     -0.000  -0.000  -0.243
    3 14 4dx2-y2    1.00426   0.14197     -0.000  -0.000  -0.142
    3 15 4dxy      -0.01349   0.00320     -0.000   0.000   0.003
    3 16 4dyz      -0.07049   0.04437      0.000   0.000   0.044
    3 17 4dz2      -0.18151   0.04504     -0.000   0.000   0.045
    3 18 4dxz      -0.20463   0.08343      0.000   0.000   0.083
    3 19 4dx2-y2   -0.09218   0.03795      0.000  -0.000   0.038
    3     Total    13.22767   0.71454     -0.000  -0.000  -0.715

    4  1 4s         1.93164   0.00229      0.000  -0.000  -0.002
    4  2 5s        -0.02560   0.04144      0.000  -0.000  -0.041
    4  3 5s         0.47809   0.00415     -0.000   0.000  -0.004
    4  4 4py        1.94837   0.00200      0.000  -0.000  -0.002
    4  5 4pz        1.94000   0.00438      0.000  -0.000  -0.004
    4  6 4px        1.94454   0.00277      0.000  -0.000  -0.003
    4  7 5py        0.29012   0.02081     -0.000  -0.000  -0.021
    4  8 5pz        0.30787   0.03569     -0.000  -0.000  -0.036
    4  9 5px        0.25664   0.01975      0.000  -0.000  -0.020
    4 10 4dxy       0.77758   0.05249     -0.000  -0.000  -0.052
    4 11 4dyz       0.79901   0.21800      0.000  -0.000  -0.218
    4 12 4dz2       1.18784   0.14017      0.000  -0.000  -0.140
    4 13 4dxz       0.94960   0.24262      0.000  -0.000  -0.243
    4 14 4dx2-y2    1.00425   0.14197      0.000  -0.000  -0.142
    4 15 4dxy      -0.01348   0.00320      0.000   0.000   0.003
    4 16 4dyz      -0.07049   0.04437     -0.000   0.000   0.044
    4 17 4dz2      -0.18152   0.04504      0.000   0.000   0.045
    4 18 4dxz      -0.20463   0.08343     -0.000   0.000   0.083
    4 19 4dx2-y2   -0.09218   0.03795     -0.000  -0.000   0.038
    4     Total    13.22766   0.71454      0.000  -0.000  -0.715

----------------------------------------------------------------
Total              52.91066   2.85815      0.000  -0.000  -2.858


Species: Fe                  

Atom      Orb        Charge      Spin       Svec
----------------------------------------------------------------
    5  1 3s         1.93613   0.01442      0.000   0.000   0.014
    5  2 4s        -0.48872   0.00757      0.000  -0.000   0.008
    5  3 4s         0.39976   0.02174      0.000   0.000   0.022
    5  4 3py        2.00475   0.00125     -0.000  -0.000  -0.001
    5  5 3pz        2.00440   0.00177     -0.000  -0.000  -0.002
    5  6 3px        2.00332   0.00136     -0.000  -0.000  -0.001
    5  7 4py        0.33496   0.03446      0.000   0.000   0.034
    5  8 4pz        0.32325   0.02774      0.000   0.000   0.028
    5  9 4px        0.30935   0.03734     -0.000  -0.000   0.037
    5 10 3dxy       1.49771   0.41146      0.000   0.000   0.411
    5 11 3dyz       1.18553   0.72993      0.000   0.000   0.730
    5 12 3dz2       1.72057   0.23353      0.000  -0.000   0.234
    5 13 3dxz       1.21975   0.68103      0.000   0.000   0.681
    5 14 3dx2-y2    1.31396   0.59046      0.000   0.000   0.590
    5 15 3dxy      -0.09354   0.07657      0.000   0.000   0.077
    5 16 3dyz      -0.05347   0.05045      0.000   0.000   0.050
    5 17 3dz2      -0.16639   0.09067      0.000   0.000   0.091
    5 18 3dxz      -0.04311   0.06088      0.000   0.000   0.061
    5 19 3dx2-y2   -0.06211   0.06119      0.000   0.000   0.061
    5     Total    15.34612   3.12505      0.000   0.000   3.125

    6  1 3s         1.93613   0.01442     -0.000   0.000   0.014
    6  2 4s        -0.48871   0.00757     -0.000   0.000   0.008
    6  3 4s         0.39976   0.02174     -0.000   0.000   0.022
    6  4 3py        2.00475   0.00125      0.000  -0.000  -0.001
    6  5 3pz        2.00440   0.00177      0.000  -0.000  -0.002
    6  6 3px        2.00332   0.00136      0.000  -0.000  -0.001
    6  7 4py        0.33496   0.03446     -0.000   0.000   0.034
    6  8 4pz        0.32325   0.02774     -0.000   0.000   0.028
    6  9 4px        0.30935   0.03734      0.000  -0.000   0.037
    6 10 3dxy       1.49771   0.41146     -0.000   0.000   0.411
    6 11 3dyz       1.18553   0.72993     -0.000   0.000   0.730
    6 12 3dz2       1.72056   0.23352     -0.000  -0.000   0.234
    6 13 3dxz       1.21974   0.68103     -0.000   0.000   0.681
    6 14 3dx2-y2    1.31396   0.59047     -0.000   0.000   0.590
    6 15 3dxy      -0.09353   0.07657     -0.000   0.000   0.077
    6 16 3dyz      -0.05346   0.05045     -0.000   0.000   0.050
    6 17 3dz2      -0.16639   0.09067     -0.000  -0.000   0.091
    6 18 3dxz      -0.04311   0.06088     -0.000   0.000   0.061
    6 19 3dx2-y2   -0.06211   0.06119     -0.000   0.000   0.061
    6     Total    15.34612   3.12506     -0.000   0.000   3.125

    7  1 3s         1.93613   0.01442     -0.000  -0.000   0.014
    7  2 4s        -0.48872   0.00757     -0.000   0.000   0.008
    7  3 4s         0.39976   0.02174      0.000  -0.000   0.022
    7  4 3py        2.00475   0.00125      0.000   0.000  -0.001
    7  5 3pz        2.00440   0.00177      0.000   0.000  -0.002
    7  6 3px        2.00332   0.00136      0.000   0.000  -0.001
    7  7 4py        0.33496   0.03446     -0.000  -0.000   0.034
    7  8 4pz        0.32325   0.02774      0.000   0.000   0.028
    7  9 4px        0.30935   0.03734     -0.000  -0.000   0.037
    7 10 3dxy       1.49771   0.41146     -0.000  -0.000   0.411
    7 11 3dyz       1.18553   0.72993     -0.000  -0.000   0.730
    7 12 3dz2       1.72057   0.23352      0.000   0.000   0.234
    7 13 3dxz       1.21974   0.68103     -0.000  -0.000   0.681
    7 14 3dx2-y2    1.31396   0.59046     -0.000  -0.000   0.590
    7 15 3dxy      -0.09354   0.07657     -0.000   0.000   0.077
    7 16 3dyz      -0.05347   0.05045     -0.000   0.000   0.050
    7 17 3dz2      -0.16639   0.09067     -0.000  -0.000   0.091
    7 18 3dxz      -0.04311   0.06088     -0.000  -0.000   0.061
    7 19 3dx2-y2   -0.06211   0.06119     -0.000  -0.000   0.061
    7     Total    15.34612   3.12505     -0.000  -0.000   3.125

    8  1 3s         1.93613   0.01442      0.000  -0.000   0.014
    8  2 4s        -0.48871   0.00757      0.000   0.000   0.008
    8  3 4s         0.39976   0.02174     -0.000  -0.000   0.022
    8  4 3py        2.00475   0.00125     -0.000   0.000  -0.001
    8  5 3pz        2.00440   0.00177     -0.000   0.000  -0.002
    8  6 3px        2.00332   0.00136     -0.000   0.000  -0.001
    8  7 4py        0.33496   0.03446      0.000  -0.000   0.034
    8  8 4pz        0.32325   0.02774     -0.000   0.000   0.028
    8  9 4px        0.30935   0.03734      0.000  -0.000   0.037
    8 10 3dxy       1.49772   0.41146      0.000  -0.000   0.411
    8 11 3dyz       1.18553   0.72993      0.000  -0.000   0.730
    8 12 3dz2       1.72056   0.23353     -0.000   0.000   0.234
    8 13 3dxz       1.21974   0.68103      0.000  -0.000   0.681
    8 14 3dx2-y2    1.31396   0.59047      0.000  -0.000   0.590
    8 15 3dxy      -0.09354   0.07657      0.000  -0.000   0.077
    8 16 3dyz      -0.05346   0.05045      0.000   0.000   0.050
    8 17 3dz2      -0.16639   0.09067      0.000  -0.000   0.091
    8 18 3dxz      -0.04311   0.06088      0.000  -0.000   0.061
    8 19 3dx2-y2   -0.06211   0.06119      0.000  -0.000   0.061
    8     Total    15.34612   3.12506      0.000  -0.000   3.125

----------------------------------------------------------------
Total             114.29515   9.64207      0.000  -0.000   9.642


Species: Te                  

Atom      Orb        Charge      Spin       Svec
----------------------------------------------------------------
    9  1 5s         1.72876   0.00097      0.000   0.000  -0.001
    9  2 5s         0.08194   0.00235     -0.000  -0.000   0.002
    9  3 5py        1.23178   0.00777     -0.001   0.000  -0.008
    9  4 5pz        1.34619   0.10549      0.006  -0.000  -0.105
    9  5 5px        1.32387   0.01255     -0.005   0.000   0.012
    9  6 5py        0.12419   0.00163      0.000   0.000   0.002
    9  7 5pz        0.02868   0.03046     -0.002  -0.000   0.030
    9  8 5px        0.03561   0.01114      0.002  -0.000   0.011
    9  9 4dxy       2.00108   0.00000      0.000  -0.000  -0.000
    9 10 4dyz       2.00071   0.00003     -0.000  -0.000  -0.000
    9 11 4dz2       2.00067   0.00001     -0.000  -0.000   0.000
    9 12 4dxz       2.00105   0.00001      0.000  -0.000  -0.000
    9 13 4dx2-y2    2.00227   0.00003     -0.000  -0.000  -0.000
    9 14 5dxy       0.05747   0.00313      0.000  -0.000  -0.003
    9 15 5dyz       0.08019   0.00263     -0.001  -0.000  -0.003
    9 16 5dz2       0.06630   0.00363      0.000  -0.000  -0.004
    9 17 5dxz       0.05131   0.00108     -0.000  -0.000   0.001
    9 18 5dx2-y2    0.06378   0.00390      0.000   0.000  -0.004
    9     Total    16.22583   0.06929      0.000   0.000  -0.069

   10  1 5s         1.70296   0.00150     -0.000  -0.000   0.002
   10  2 5s         0.09550   0.00107      0.000   0.000   0.001
   10  3 5py        1.28029   0.03004     -0.000  -0.000  -0.030
   10  4 5pz        1.25189   0.05336      0.000   0.000   0.053
   10  5 5px        1.30785   0.03366      0.000   0.000  -0.034
   10  6 5py        0.07084   0.01832      0.000   0.000   0.018
   10  7 5pz        0.07161   0.00305     -0.000   0.000  -0.003
   10  8 5px       -0.01906   0.02272     -0.000  -0.000   0.023
   10  9 4dxy       2.00103   0.00001      0.000  -0.000   0.000
   10 10 4dyz       2.00130   0.00000      0.000   0.000   0.000
   10 11 4dz2       2.00081   0.00007      0.000  -0.000   0.000
   10 12 4dxz       2.00144   0.00007     -0.000  -0.000  -0.000
   10 13 4dx2-y2    2.00195   0.00002      0.000  -0.000  -0.000
   10 14 5dxy       0.08268   0.00295     -0.000  -0.000  -0.003
   10 15 5dyz       0.08233   0.00598     -0.000  -0.000  -0.006
   10 16 5dz2       0.06806   0.00673     -0.000  -0.000   0.007
   10 17 5dxz       0.08755   0.01125      0.000  -0.000  -0.011
   10 18 5dx2-y2    0.11133   0.00188     -0.000   0.000  -0.002
   10     Total    16.20038   0.01489      0.000   0.000   0.015

   11  1 5s         1.70296   0.00150      0.000   0.000   0.002
   11  2 5s         0.09550   0.00107     -0.000  -0.000   0.001
   11  3 5py        1.28029   0.03004      0.000  -0.000  -0.030
   11  4 5pz        1.25189   0.05336     -0.000   0.000   0.053
   11  5 5px        1.30785   0.03366      0.000   0.000  -0.034
   11  6 5py        0.07084   0.01832     -0.000  -0.000   0.018
   11  7 5pz        0.07161   0.00305      0.000   0.000  -0.003
   11  8 5px       -0.01906   0.02272     -0.000  -0.000   0.023
   11  9 4dxy       2.00103   0.00001     -0.000  -0.000   0.000
   11 10 4dyz       2.00130   0.00000     -0.000  -0.000   0.000
   11 11 4dz2       2.00081   0.00007     -0.000  -0.000   0.000
   11 12 4dxz       2.00144   0.00007     -0.000   0.000  -0.000
   11 13 4dx2-y2    2.00195   0.00002     -0.000  -0.000  -0.000
   11 14 5dxy       0.08268   0.00295     -0.000   0.000  -0.003
   11 15 5dyz       0.08233   0.00598      0.000  -0.000  -0.006
   11 16 5dz2       0.06806   0.00673      0.000  -0.000   0.007
   11 17 5dxz       0.08755   0.01125     -0.000   0.000  -0.011
   11 18 5dx2-y2    0.11133   0.00188     -0.000  -0.000  -0.002
   11     Total    16.20038   0.01488     -0.000   0.000   0.015

   12  1 5s         1.72875   0.00097     -0.000   0.000  -0.001
   12  2 5s         0.08194   0.00235      0.000  -0.000   0.002
   12  3 5py        1.23178   0.00777      0.001   0.000  -0.008
   12  4 5pz        1.34619   0.10549     -0.006  -0.000  -0.105
   12  5 5px        1.32387   0.01255      0.005   0.000   0.012
   12  6 5py        0.12419   0.00163     -0.000   0.000   0.002
   12  7 5pz        0.02867   0.03046      0.002  -0.000   0.030
   12  8 5px        0.03561   0.01114     -0.002  -0.000   0.011
   12  9 4dxy       2.00108   0.00000     -0.000   0.000  -0.000
   12 10 4dyz       2.00071   0.00003      0.000  -0.000  -0.000
   12 11 4dz2       2.00067   0.00001      0.000  -0.000   0.000
   12 12 4dxz       2.00105   0.00001     -0.000  -0.000  -0.000
   12 13 4dx2-y2    2.00227   0.00003      0.000  -0.000  -0.000
   12 14 5dxy       0.05747   0.00313     -0.000  -0.000  -0.003
   12 15 5dyz       0.08019   0.00263      0.001  -0.000  -0.003
   12 16 5dz2       0.06630   0.00363     -0.000  -0.000  -0.004
   12 17 5dxz       0.05131   0.00108      0.000  -0.000   0.001
   12 18 5dx2-y2    0.06378   0.00390     -0.000   0.000  -0.004
   12     Total    16.22583   0.06929     -0.000   0.000  -0.069

   13  1 5s         1.70296   0.00150      0.000  -0.000   0.002
   13  2 5s         0.09550   0.00107     -0.000   0.000   0.001
   13  3 5py        1.28029   0.03004      0.000  -0.000  -0.030
   13  4 5pz        1.25189   0.05336     -0.000   0.000   0.053
   13  5 5px        1.30785   0.03366     -0.000   0.000  -0.034
   13  6 5py        0.07085   0.01832     -0.000   0.000   0.018
   13  7 5pz        0.07161   0.00305      0.000   0.000  -0.003
   13  8 5px       -0.01906   0.02272      0.000   0.000   0.023
   13  9 4dxy       2.00103   0.00001     -0.000  -0.000   0.000
   13 10 4dyz       2.00130   0.00000     -0.000   0.000   0.000
   13 11 4dz2       2.00081   0.00007     -0.000  -0.000   0.000
   13 12 4dxz       2.00144   0.00007      0.000  -0.000  -0.000
   13 13 4dx2-y2    2.00195   0.00002     -0.000  -0.000  -0.000
   13 14 5dxy       0.08268   0.00295      0.000  -0.000  -0.003
   13 15 5dyz       0.08233   0.00598      0.000  -0.000  -0.006
   13 16 5dz2       0.06806   0.00673      0.000  -0.000   0.007
   13 17 5dxz       0.08755   0.01125     -0.000  -0.000  -0.011
   13 18 5dx2-y2    0.11133   0.00188      0.000  -0.000  -0.002
   13     Total    16.20038   0.01488     -0.000   0.000   0.015

   14  1 5s         1.70296   0.00150     -0.000   0.000   0.002
   14  2 5s         0.09550   0.00107      0.000   0.000   0.001
   14  3 5py        1.28029   0.03004     -0.000  -0.000  -0.030
   14  4 5pz        1.25189   0.05336      0.000   0.000   0.053
   14  5 5px        1.30785   0.03366     -0.000   0.000  -0.034
   14  6 5py        0.07084   0.01832      0.000   0.000   0.018
   14  7 5pz        0.07161   0.00305     -0.000   0.000  -0.003
   14  8 5px       -0.01906   0.02272      0.000   0.000   0.023
   14  9 4dxy       2.00103   0.00001      0.000  -0.000   0.000
   14 10 4dyz       2.00130   0.00000      0.000  -0.000   0.000
   14 11 4dz2       2.00081   0.00007      0.000  -0.000   0.000
   14 12 4dxz       2.00144   0.00007      0.000  -0.000  -0.000
   14 13 4dx2-y2    2.00195   0.00002      0.000  -0.000  -0.000
   14 14 5dxy       0.08268   0.00295      0.000   0.000  -0.003
   14 15 5dyz       0.08233   0.00598     -0.000  -0.000  -0.006
   14 16 5dz2       0.06806   0.00673     -0.000  -0.000   0.007
   14 17 5dxz       0.08755   0.01125      0.000   0.000  -0.011
   14 18 5dx2-y2    0.11133   0.00188      0.000  -0.000  -0.002
   14     Total    16.20038   0.01488      0.000  -0.000   0.015

   15  1 5s         1.72876   0.00097      0.000   0.000  -0.001
   15  2 5s         0.08194   0.00235     -0.000  -0.000   0.002
   15  3 5py        1.23178   0.00777     -0.001   0.000  -0.008
   15  4 5pz        1.34619   0.10549      0.006  -0.000  -0.105
   15  5 5px        1.32387   0.01255     -0.005   0.000   0.012
   15  6 5py        0.12419   0.00163      0.000   0.000   0.002
   15  7 5pz        0.02867   0.03046     -0.002  -0.000   0.030
   15  8 5px        0.03561   0.01114      0.002  -0.000   0.011
   15  9 4dxy       2.00108   0.00000      0.000   0.000  -0.000
   15 10 4dyz       2.00071   0.00003     -0.000  -0.000  -0.000
   15 11 4dz2       2.00067   0.00001     -0.000  -0.000   0.000
   15 12 4dxz       2.00105   0.00001      0.000  -0.000  -0.000
   15 13 4dx2-y2    2.00227   0.00003     -0.000   0.000  -0.000
   15 14 5dxy       0.05747   0.00313      0.000  -0.000  -0.003
   15 15 5dyz       0.08019   0.00263     -0.001  -0.000  -0.003
   15 16 5dz2       0.06630   0.00363      0.000  -0.000  -0.004
   15 17 5dxz       0.05131   0.00108     -0.000  -0.000   0.001
   15 18 5dx2-y2    0.06378   0.00390      0.000   0.000  -0.004
   15     Total    16.22583   0.06929      0.000   0.000  -0.069

   16  1 5s         1.72876   0.00097     -0.000   0.000  -0.001
   16  2 5s         0.08194   0.00235      0.000   0.000   0.002
   16  3 5py        1.23178   0.00777      0.001   0.000  -0.008
   16  4 5pz        1.34619   0.10549     -0.006  -0.000  -0.105
   16  5 5px        1.32387   0.01255      0.005   0.000   0.012
   16  6 5py        0.12419   0.00163     -0.000   0.000   0.002
   16  7 5pz        0.02867   0.03046      0.002  -0.000   0.030
   16  8 5px        0.03561   0.01114     -0.002  -0.000   0.011
   16  9 4dxy       2.00108   0.00000     -0.000   0.000  -0.000
   16 10 4dyz       2.00071   0.00003      0.000  -0.000  -0.000
   16 11 4dz2       2.00067   0.00001      0.000  -0.000   0.000
   16 12 4dxz       2.00105   0.00001     -0.000  -0.000  -0.000
   16 13 4dx2-y2    2.00227   0.00003      0.000  -0.000  -0.000
   16 14 5dxy       0.05747   0.00313     -0.000  -0.000  -0.003
   16 15 5dyz       0.08019   0.00263      0.001  -0.000  -0.003
   16 16 5dz2       0.06630   0.00363     -0.000  -0.000  -0.004
   16 17 5dxz       0.05131   0.00108      0.000  -0.000   0.001
   16 18 5dx2-y2    0.06378   0.00390     -0.000   0.000  -0.004
   16     Total    16.22583   0.06929     -0.000   0.000  -0.069

----------------------------------------------------------------
Total             244.00000   9.42445      0.000  -0.000   9.424


Mulliken Atomic Populations:
Atom #   charge [q] valence [e]           S      Sx [e]      Sy [e]      Sz [e]  Species
     1    -0.227665   13.227665    0.714528    0.000001   -0.000001   -0.714528  Nb
     2    -0.227663   13.227663    0.714546   -0.000001   -0.000001   -0.714546  Nb
     3    -0.227666   13.227666    0.714538   -0.000000   -0.000001   -0.714538  Nb
     4    -0.227664   13.227664    0.714538    0.000000   -0.000002   -0.714538  Nb
     5     0.653878   15.346122    3.125049    0.000004    0.000002    3.125049  Fe
     6     0.653877   15.346123    3.125060   -0.000004    0.000001    3.125060  Fe
     7     0.653878   15.346122    3.125050   -0.000002   -0.000001    3.125050  Fe
     8     0.653876   15.346124    3.125060    0.000003   -0.000001    3.125060  Fe
     9    -0.225832   16.225832    0.069288    0.000039    0.000000   -0.069288  Te
    10    -0.200380   16.200380    0.014885    0.000000    0.000000    0.014885  Te
    11    -0.200380   16.200380    0.014885   -0.000000    0.000000    0.014885  Te
    12    -0.225834   16.225834    0.069288   -0.000039    0.000000   -0.069288  Te
    13    -0.200381   16.200381    0.014884   -0.000000    0.000000    0.014884  Te
    14    -0.200381   16.200381    0.014885    0.000000   -0.000000    0.014885  Te
    15    -0.225832   16.225832    0.069290    0.000039    0.000000   -0.069289  Te
    16    -0.225831   16.225831    0.069290   -0.000039    0.000000   -0.069290  Te
-------------------------------------------------------------------------------
 Total    -0.000000                9.424454    0.000000   -0.000004    9.424454

cite: Please see "NbFeTe2.bib" for an exhaustive BiBTeX file.
cite: Please clearly indicate Siesta version in published work: 5.2.0 (Spack) Tag: 5.2.0
cite: This calculation has made use of the following articles
cite: which are encouraged to be cited in a published work.
        Primary SIESTA paper
          DOI: www.doi.org/10.1088/0953-8984/14/11/302
        LDA+U implementation
          DOI: www.doi.org/10.1103/PhysRevB.57.1505
        Spin-orbit coupling (off-site approximation)
          DOI: www.doi.org/10.1088/0953-8984/24/8/086005


>> End of run:  21-JUN-2025   7:07:03
Job completed
