Executable      : /work/e89/e89/shreyas/siesta_env/.spack-env/view/bin/siesta
Version         : 5.2.0 (Spack) Tag: 5.2.0
Architecture    : x86_64
Compiler version: GNU-11.2.0
Compiler flags  : -fallow-argument-mismatch -O3 -march=native
Parallelisations: MPI
NetCDF support
NetCDF-4 support
NetCDF-4 MPI-IO support
Native ELPA support
 --- ELPA GPU support: nvidia-gpu
ELSI support. Solvers:
   ELPA (external, GPU support: nvidia-gpu)
   NTPoly
   OMM
   PEXSI
DFT-D3 support

Runtime information:
* Directory : /mnt/lustre/a2fs-work3/work/e89/e89/shreyas/nft/bulk/struct_opt
* Running on 32 nodes in parallel.
>> Start of run:  19-JUN-2025  15:50:04

                           *********************** 
                           *  WELCOME TO SIESTA  * 
                           *********************** 

 NOTE: Siesta V5 introduces some new defaults for basis-set generation
 NOTE: which might lead to slightly different numerical results.
 NOTE: Please see the manual for full details and compatibility measures.


reinit: Reading from standard input
reinit: Dumping input in INPUT_TMP.69349
************************** Dump of input data file ****************************
SystemName          NbFeTe2 Bulk
SystemLabel         NbFeTe2
NumberOfAtoms       16
NumberOfSpecies     3
LatticeConstant 1 Ang
%block LatticeVectors
        6.344706   -0.000002    0.000000
       -0.000003    7.737341    0.000000
        0.000000    0.000000    8.003319
%endblock LatticeVectors
%block ChemicalSpeciesLabel
  1   41  Nb /work/e89/e89/shreyas/psml_files/Nb.psml
  2   26  Fe /work/e89/e89/shreyas/psml_files/Fe.psml
  3   52  Te /work/e89/e89/shreyas/psml_files/Te.psml
%endblock ChemicalSpeciesLabel
AtomicCoordinatesFormat Fractional
%block AtomicCoordinatesAndAtomicSpecies
    0.49999999    0.50000000    0.29576047   1
   -0.00000003    0.50000001    0.79576014   1
    0.00000000    0.50000001    0.20423985   1
    0.49999998    0.50000002    0.70423954   1
    0.13893816    0.60578707    0.50000000   2
    0.63893848    0.39421265    0.00000001   2
    0.86106182    0.39421295    0.49999997   2
    0.36106155    0.60578739    0.00000001   2
    0.75000001    0.19119272    0.74999976   3
    0.24278264    0.27395142   -0.00000000   3
    0.75721736    0.72604862    0.00000003   3
    0.24999996    0.80880730    0.74999982   3
    0.74278275    0.72604835    0.50000003   3
    0.25721721    0.27395168    0.50000002   3
    0.24999996    0.80880732    0.25000022   3
    0.75000001    0.19119271    0.25000021   3
%endblock AtomicCoordinatesAndAtomicSpecies
XC.functional   GGA
XC.authors      PBE
Spin            spin-orbit
Charge.Mulliken end
%block DM.InitSpin
   5  +  90.  90.
   6  +  90.  90.
   7  +  90.  90.
   8  +  90.  90.
%endblock DM.InitSpin
SCF.Mix                 Hamiltonian
SCF.Mixer.Method        Pulay
SCF.Mixer.History       10
SCF.Mixer.Weight        0.1
SCF.Mixer.Kick          50
SCF.H.Tolerance		0.005 eV
SCF.DM.Tolerance	0.0005
PAO.BasisSize           DZP
PAO.EnergyShift         50 meV
%block DFTU.proj
Fe   1               # number of shells of projectors
n=3    2             #  n, l
  4.5  0.9     # U(eV), J(eV)
  0.0  0.0     # rc, \omega (if zero default values are taken)
%endblock DFTU.proj
DM.UseSaveDM           	T
# Real space grid...
MeshCutoff           150 Ry
%block kgrid_Monkhorst_Pack
  10	0	0    0.0
  0	10	0    0.0
  0	0	10    0.0
%endblock kgrid_Monkhorst_Pack
MD.TypeOfRun            CG
MD.Steps                100
MD.MaxForceTol          0.01 eV/Ang
MD.VariableCell        T
#MD.NaxStressTol		0.05 GPa
Target.Pressure		0.0 GPa
************************** End of input data file *****************************

reinit: -----------------------------------------------------------------------
reinit: System Name: NbFeTe2 Bulk
reinit: -----------------------------------------------------------------------
reinit: System Label: NbFeTe2
reinit: -----------------------------------------------------------------------

NOTE on units for spin output: 
{S} is the spin magnetic moment, in units of the Bohr magneton,
assuming a g-factor for the electron spin of exactly 2.
The spin magnetic moment is then numerically equal to the charge inbalance,
in units of electrons, between the spin-up and -down channels.


initatom: Reading input for the pseudopotentials and atomic orbitals ----------
Species number:   1 Atomic number:   41 Label: Nb
Species number:   2 Atomic number:   26 Label: Fe
Species number:   3 Atomic number:   52 Label: Te

Ground state valence configuration (from tables):   5s01  5p00  4d04  4f00
Ground state valence configuration (from tables):   4s02  4p00  3d06  4f00
Ground state valence configuration (from tables):   5s02  5p04  5d00  4f00

---- Processing specs for species: Nb
Reading pseudopotential information in PSML from:
  /work/e89/e89/shreyas/psml_files/Nb.psml
PSML file version: 1.1
Using libxc ids:  101 130
GGA--PBE XC_GGA_X_PBE--XC_GGA_C_PBE pb
PSML uuid: 548394d0-44bc-11e8-4eec-b97effbd72e7
Semicore shell(s) with  8 electrons included in the valence for Nb

---- Processing specs for species: Fe
Reading pseudopotential information in PSML from:
  /work/e89/e89/shreyas/psml_files/Fe.psml
PSML file version: 1.1
Using libxc ids:  101 130
GGA--PBE XC_GGA_X_PBE--XC_GGA_C_PBE pb
PSML uuid: 89456970-44bf-11e8-4d23-a6a6edf19e30
Semicore shell(s) with  8 electrons included in the valence for Fe

---- Processing specs for species: Te
Reading pseudopotential information in PSML from:
  /work/e89/e89/shreyas/psml_files/Te.psml
PSML file version: 1.1
Using libxc ids:  101 130
GGA--PBE XC_GGA_X_PBE--XC_GGA_C_PBE pb
PSML uuid: edaa6890-471a-11e8-6356-ec79ff4cd4ef
Semicore shell(s) with 10 electrons included in the valence for Te

---- Pseudopotential check for Nb

Pseudopotential generated from a fully relativistic atomic calculation
There are spin-orbit semi-local pseudopotentials available

Pseudized shells:
4s( 2.00) rc: 1.51
4p( 6.00) rc: 1.40
4d( 4.00) rc: 1.40
Valence configuration for ps generation: 4s:4p:4d:5s: Total charge:  13.000000
Semicore shell(s): 4s 4p
Fallback to non-perturbative polarization scheme for Nb
Please see the manual if this is not desired in principle

---- Pseudopotential check for Fe

Pseudopotential generated from a fully relativistic atomic calculation
There are spin-orbit semi-local pseudopotentials available

Pseudized shells:
3s( 2.00) rc: 1.26
3p( 6.00) rc: 1.21
3d( 6.00) rc: 1.57
Valence configuration for ps generation: 3s:3p:3d:4s: Total charge:  16.000000
Semicore shell(s): 3s 3p
Fallback to non-perturbative polarization scheme for Fe
Please see the manual if this is not desired in principle

---- Pseudopotential check for Te

Pseudopotential generated from a fully relativistic atomic calculation
There are spin-orbit semi-local pseudopotentials available

Pseudized shells:
5s( 2.00) rc: 2.27
5p( 4.00) rc: 1.92
4d(10.00) rc: 1.81
Valence configuration for ps generation: 4d:5s:5p: Total charge:  16.000000
Semicore shell(s): 4d
Fallback to non-perturbative polarization scheme for Te
Please see the manual if this is not desired in principle
For Nb, standard SIESTA heuristics set lmxkb to 3
 (one more than the basis l, including polarization orbitals).
Use PS.lmax or PS.KBprojectors blocks to override.
For Fe, standard SIESTA heuristics set lmxkb to 3
 (one more than the basis l, including polarization orbitals).
Use PS.lmax or PS.KBprojectors blocks to override.
For Te, standard SIESTA heuristics set lmxkb to 3
 (one more than the basis l, including polarization orbitals).
Use PS.lmax or PS.KBprojectors blocks to override.
/work/e89/e89/shreyas/psml_files/Nb.psml pseudopotential only contains V_ls up to l=2 -- lmxkb reset.
/work/e89/e89/shreyas/psml_files/Fe.psml pseudopotential only contains V_ls up to l=2 -- lmxkb reset.
/work/e89/e89/shreyas/psml_files/Te.psml pseudopotential only contains V_ls up to l=2 -- lmxkb reset.

<basis_specs>
===============================================================================
Nb                   Z=  41    Mass=  92.906        Charge= 0.17977+309
Lmxo=2 Lmxkb= 2    BasisType=split      Semic=T
L=0  Nsemic=1  Cnfigmx=5
          i=1  nzeta=1  polorb=0  (4s)  (semicore shell)
            splnorm:   0.15000    
               vcte:    40.000    
               rinn:  -0.90000    
               qcoe:    0.0000    
               qyuk:    0.0000    
               qwid:   0.10000E-01
                rcs:    0.0000    
            lambdas:    1.0000    
          i=2  nzeta=2  polorb=0  (5s)  (to be polarized non-perturbatively)
            splnorm:   0.15000    
               vcte:    40.000    
               rinn:  -0.90000    
               qcoe:    0.0000    
               qyuk:    0.0000    
               qwid:   0.10000E-01
                rcs:    0.0000      0.0000    
            lambdas:    1.0000      1.0000    
L=1  Nsemic=1  Cnfigmx=5
          i=1  nzeta=1  polorb=0  (4p)  (semicore shell)
            splnorm:   0.15000    
               vcte:    40.000    
               rinn:  -0.90000    
               qcoe:    0.0000    
               qyuk:    0.0000    
               qwid:   0.10000E-01
                rcs:    0.0000    
            lambdas:    1.0000    
          i=2  nzeta=1  polorb=0  (5p)  (non-perturbative polarization shell)
            splnorm:   0.15000    
               vcte:    40.000    
               rinn:  -0.90000    
               qcoe:   0.11198-314
               qyuk:   0.49407-323
               qwid:   0.11582-309
                rcs:    0.0000    
            lambdas:    1.0000    
L=2  Nsemic=0  Cnfigmx=4
          i=1  nzeta=2  polorb=0  (4d)
            splnorm:   0.15000    
               vcte:    40.000    
               rinn:  -0.90000    
               qcoe:    0.0000    
               qyuk:    0.0000    
               qwid:   0.10000E-01
                rcs:    0.0000      0.0000    
            lambdas:    1.0000      1.0000    
-------------------------------------------------------------------------------
L=0  Nkbl=2  erefs: 0.17977+309 0.17977+309
L=1  Nkbl=2  erefs: 0.17977+309 0.17977+309
L=2  Nkbl=1  erefs: 0.17977+309
===============================================================================
</basis_specs>

Using PAO.SplitTailNorm
atom: Called for Nb                    (Z =  41)
Maximum radius (at nrval) set to   50.00000 8518

read_vps: Pseudopotential generation method:
read_vps: ONCVPSP-3.Hamann's oncvpsp                        
Valence charge in pseudo generation:   13.00000

read_vps: Pseudopotential includes a core correction:
read_vps: Pseudo-core for xc-correction

xc_check: Exchange-correlation functional:
xc_check: GGA Perdew, Burke & Ernzerhof 1996
Got Vlocal (oncv-fit) from psml data
Choosing vlocal chloc cutoff:  6.020499
qtot up to nchloc:   12.99995086
atom: Maximum radius for chlocal:    6.02050
atom: Maximum radius for r*vlocal+2*Zval:    6.02050
Reading KB projs from Nb psml data
Using lj projectors in PSML file

PSML: Kleinman-Bylander projectors: 
   l= 0   rc=  1.526996   Ekb=  2.679097
   l= 0   rc=  1.526996   Ekb= 25.890388
j- l= 1   rc=  1.421653   Ekb=  1.692988
j+ l= 1   rc=  1.421653   Ekb=  1.492224
j- l= 1   rc=  1.421653   Ekb= 15.596372
j+ l= 1   rc=  1.421653   Ekb= 15.467537
j- l= 2   rc=  1.421653   Ekb=  2.142057
j+ l= 2   rc=  1.421653   Ekb=  2.237418
j- l= 2   rc=  1.421653   Ekb=  6.646060
j+ l= 2   rc=  1.421653   Ekb=  7.445704

PSML: Total number of  Kleinman-Bylander projectors:  34
atom: -------------------------------------------------------------------------

atom: SANKEY-TYPE ORBITALS:
atom: Selected multiple-zeta basis: split     

SPLIT: Orbitals with angular momentum L= 0

SPLIT: Basis orbitals for state 4s

SPLIT: PAO cut-off radius determined from an
SPLIT: energy shift=  0.003675 Ry
Split based on tail norm

   izeta = 1
                 lambda =    1.000000
                     rc =    3.312873
                 energy =   -4.284737
                kinetic =    2.120952
    potential(screened) =   -6.405690
       potential(ionic) =  -21.112880

SPLIT: Basis orbitals for state 5s

SPLIT: PAO cut-off radius determined from an
SPLIT: energy shift=  0.003675 Ry
Split based on tail norm

   izeta = 1
                 lambda =    1.000000
                     rc =    8.986448
                 energy =   -0.294987
                kinetic =    0.663488
    potential(screened) =   -0.958475
       potential(ionic) =   -8.468659

   izeta = 2
                 rmatch =    6.431940
              splitnorm =    0.150000
                 energy =   -0.189755
                kinetic =    1.098514
    potential(screened) =   -1.288269
       potential(ionic) =  -10.061438

SPLIT: Orbitals with angular momentum L= 1

SPLIT: Basis orbitals for state 4p

SPLIT: PAO cut-off radius determined from an
SPLIT: energy shift=  0.003675 Ry
Split based on tail norm

   izeta = 1
                 lambda =    1.000000
                     rc =    3.835216
                 energy =   -2.532213
                kinetic =    3.382249
    potential(screened) =   -5.914462
       potential(ionic) =  -20.043694

SPLIT: Basis orbitals for state 5p
SPLIT: Non-perturbative polarization orbs for state 5s
SPLIT: rc(1st zeta) (re)set to: 8.9864 (expansion factor: 1.0000)
Split based on tail norm

   izeta = 1
                 lambda =    1.000000
                     rc =    8.986448
                 energy =   -0.049837
                kinetic =    0.599719
    potential(screened) =   -0.649556
       potential(ionic) =   -6.869898

SPLIT: Orbitals with angular momentum L= 2

SPLIT: Basis orbitals for state 4d

SPLIT: PAO cut-off radius determined from an
SPLIT: energy shift=  0.003675 Ry
Split based on tail norm

   izeta = 1
                 lambda =    1.000000
                     rc =    7.152290
                 energy =   -0.218991
                kinetic =    3.108471
    potential(screened) =   -3.327462
       potential(ionic) =  -14.593211

   izeta = 2
                 rmatch =    4.635179
              splitnorm =    0.150000
                 energy =   -0.154431
                kinetic =    3.938683
    potential(screened) =   -4.093114
       potential(ionic) =  -16.443762
atom: Total number of Sankey-type orbitals: 19

atm_pop: Valence configuration (for local Pseudopot. screening):
 4s( 2.00) 5s( 1.00)                                                  
 4p( 6.00) 5p( 0.00)                                                  
 4d( 4.00)                                                            
Vna: chval, zval:   13.00000  13.00000

Vna:  Cut-off radius for the neutral-atom potential:   8.986448
comcore: Pseudo-core radius Rcore=  2.813084

atom: _________________________________________________________________________

<basis_specs>
===============================================================================
Fe                   Z=  26    Mass=  55.845        Charge= 0.17977+309
Lmxo=2 Lmxkb= 2    BasisType=split      Semic=T
L=0  Nsemic=1  Cnfigmx=4
          i=1  nzeta=1  polorb=0  (3s)  (semicore shell)
            splnorm:   0.15000    
               vcte:    40.000    
               rinn:  -0.90000    
               qcoe:    0.0000    
               qyuk:    0.0000    
               qwid:   0.10000E-01
                rcs:    0.0000    
            lambdas:    1.0000    
          i=2  nzeta=2  polorb=0  (4s)  (to be polarized non-perturbatively)
            splnorm:   0.15000    
               vcte:    40.000    
               rinn:  -0.90000    
               qcoe:    0.0000    
               qyuk:    0.0000    
               qwid:   0.10000E-01
                rcs:    0.0000      0.0000    
            lambdas:    1.0000      1.0000    
L=1  Nsemic=1  Cnfigmx=4
          i=1  nzeta=1  polorb=0  (3p)  (semicore shell)
            splnorm:   0.15000    
               vcte:    40.000    
               rinn:  -0.90000    
               qcoe:    0.0000    
               qyuk:    0.0000    
               qwid:   0.10000E-01
                rcs:    0.0000    
            lambdas:    1.0000    
          i=2  nzeta=1  polorb=0  (4p)  (non-perturbative polarization shell)
            splnorm:   0.15000    
               vcte:    40.000    
               rinn:  -0.90000    
               qcoe:   0.11198-314
               qyuk:   0.49407-323
               qwid:   0.11582-309
                rcs:    0.0000    
            lambdas:    1.0000    
L=2  Nsemic=0  Cnfigmx=3
          i=1  nzeta=2  polorb=0  (3d)
            splnorm:   0.15000    
               vcte:    40.000    
               rinn:  -0.90000    
               qcoe:    0.0000    
               qyuk:    0.0000    
               qwid:   0.10000E-01
                rcs:    0.0000      0.0000    
            lambdas:    1.0000      1.0000    
-------------------------------------------------------------------------------
L=0  Nkbl=2  erefs: 0.17977+309 0.17977+309
L=1  Nkbl=2  erefs: 0.17977+309 0.17977+309
L=2  Nkbl=1  erefs: 0.17977+309
-------------------------------------------------------------------------------
L=2  n=3
                  U:   0.33074    
                  J:   0.66149E-01
               rinn:  -0.90000    
               vcte:    40.000    
             lambda:    1.0000    
              width:   0.50000E-01
                 rc:    0.0000    
            dnrm_rc:   0.90000    
===============================================================================
</basis_specs>

Using PAO.SplitTailNorm
atom: Called for Fe                    (Z =  26)
Maximum radius (at nrval) set to   50.00000 8518

read_vps: Pseudopotential generation method:
read_vps: ONCVPSP-3.Hamann's oncvpsp                        
Valence charge in pseudo generation:   16.00000

read_vps: Pseudopotential includes a core correction:
read_vps: Pseudo-core for xc-correction

xc_check: Exchange-correlation functional:
xc_check: GGA Perdew, Burke & Ernzerhof 1996
Got Vlocal (oncv-fit) from psml data
Choosing vlocal chloc cutoff:  3.831373
qtot up to nchloc:   15.99793860
atom: Maximum radius for chlocal:    3.83137
atom: Maximum radius for r*vlocal+2*Zval:    3.83137
Reading KB projs from Fe psml data
Using lj projectors in PSML file

PSML: Kleinman-Bylander projectors: 
   l= 0   rc=  1.280242   Ekb=  2.929588
   l= 0   rc=  1.280242   Ekb= 20.336184
j- l= 1   rc=  1.221004   Ekb= -1.097447
j+ l= 1   rc=  1.221004   Ekb= -0.910000
j- l= 1   rc=  1.221004   Ekb=  3.142193
j+ l= 1   rc=  1.221004   Ekb=  3.252964
j- l= 2   rc=  1.586526   Ekb=-11.037678
j+ l= 2   rc=  1.586526   Ekb=-10.997306
j- l= 2   rc=  1.586526   Ekb= -4.077919
j+ l= 2   rc=  1.586526   Ekb= -4.057755

PSML: Total number of  Kleinman-Bylander projectors:  34
atom: -------------------------------------------------------------------------

atom: SANKEY-TYPE ORBITALS:
atom: Selected multiple-zeta basis: split     

SPLIT: Orbitals with angular momentum L= 0

SPLIT: Basis orbitals for state 3s

SPLIT: PAO cut-off radius determined from an
SPLIT: energy shift=  0.003675 Ry
Split based on tail norm

   izeta = 1
                 lambda =    1.000000
                     rc =    2.583037
                 energy =   -6.901602
                kinetic =    3.179636
    potential(screened) =  -10.081237
       potential(ionic) =  -37.480184

SPLIT: Basis orbitals for state 4s

SPLIT: PAO cut-off radius determined from an
SPLIT: energy shift=  0.003675 Ry
Split based on tail norm

   izeta = 1
                 lambda =    1.000000
                     rc =    7.399995
                 energy =   -0.444439
                kinetic =    1.128782
    potential(screened) =   -1.573221
       potential(ionic) =  -14.382125

   izeta = 2
                 rmatch =    5.103222
              splitnorm =    0.150000
                 energy =   -0.327524
                kinetic =    1.986625
    potential(screened) =   -2.314149
       potential(ionic) =  -17.608151

SPLIT: Orbitals with angular momentum L= 1

SPLIT: Basis orbitals for state 3p

SPLIT: PAO cut-off radius determined from an
SPLIT: energy shift=  0.003675 Ry
Split based on tail norm

   izeta = 1
                 lambda =    1.000000
                     rc =    2.890345
                 energy =   -4.405618
                kinetic =    7.791658
    potential(screened) =  -12.197275
       potential(ionic) =  -38.806758

SPLIT: Basis orbitals for state 4p
SPLIT: Non-perturbative polarization orbs for state 4s
SPLIT: rc(1st zeta) (re)set to: 7.4000 (expansion factor: 1.0000)
Split based on tail norm

   izeta = 1
                 lambda =    1.000000
                     rc =    7.399995
                 energy =   -0.054048
                kinetic =    0.929877
    potential(screened) =   -0.983926
       potential(ionic) =  -10.926485

SPLIT: Orbitals with angular momentum L= 2

SPLIT: Basis orbitals for state 3d

SPLIT: PAO cut-off radius determined from an
SPLIT: energy shift=  0.003675 Ry
Split based on tail norm

   izeta = 1
                 lambda =    1.000000
                     rc =    4.733759
                 energy =   -0.546174
                kinetic =   10.116200
    potential(screened) =  -10.662374
       potential(ionic) =  -34.022786

   izeta = 2
                 rmatch =    2.743382
              splitnorm =    0.150000
                 energy =   -0.410726
                kinetic =   12.230456
    potential(screened) =  -12.641182
       potential(ionic) =  -37.756898
atom: Total number of Sankey-type orbitals: 19

atm_pop: Valence configuration (for local Pseudopot. screening):
 3s( 2.00) 4s( 2.00)                                                  
 3p( 6.00) 4p( 0.00)                                                  
 3d( 6.00)                                                            
Vna: chval, zval:   16.00000  16.00000

Vna:  Cut-off radius for the neutral-atom potential:   7.399995
comcore: Pseudo-core radius Rcore=  1.729904

atom: _________________________________________________________________________
Maximum radius (at nrval) set to   50.00000 8518

DFTUprojs with principal quantum number n =  3
DFTUprojs with angular momentum l =  2
DFTUprojs with U        =      0.33074
DFTUprojs with J        =      0.06615
DFTUprojs with lambda   =      1.00000
DFTUprojs with rc       =      0.00000
DFTUprojs with nnodes   =     1
DFTUprojs with nprin    =     3
DFTUprojs with nrval    =  8517
DFTUprojs with nrwf     =  8517
DFTUprojs with nrmax    = 20000
DFTUprojs with zval     =     16.00000
DFTUprojs with a        =      0.00100
DFTUprojs with b        =      0.01000
dftu_proj_gen: updating the rc to     18.940490479409 Bohr

<basis_specs>
===============================================================================
Te                   Z=  52    Mass=  127.60        Charge= 0.17977+309
Lmxo=2 Lmxkb= 2    BasisType=split      Semic=T
L=0  Nsemic=0  Cnfigmx=5
          i=1  nzeta=2  polorb=0  (5s)
            splnorm:   0.15000    
               vcte:    40.000    
               rinn:  -0.90000    
               qcoe:    0.0000    
               qyuk:    0.0000    
               qwid:   0.10000E-01
                rcs:    0.0000      0.0000    
            lambdas:    1.0000      1.0000    
L=1  Nsemic=0  Cnfigmx=5
          i=1  nzeta=2  polorb=0  (5p)  (to be polarized non-perturbatively)
            splnorm:   0.15000    
               vcte:    40.000    
               rinn:  -0.90000    
               qcoe:    0.0000    
               qyuk:    0.0000    
               qwid:   0.10000E-01
                rcs:    0.0000      0.0000    
            lambdas:    1.0000      1.0000    
L=2  Nsemic=1  Cnfigmx=5
          i=1  nzeta=1  polorb=0  (4d)  (semicore shell)
            splnorm:   0.15000    
               vcte:    40.000    
               rinn:  -0.90000    
               qcoe:    0.0000    
               qyuk:    0.0000    
               qwid:   0.10000E-01
                rcs:    0.0000    
            lambdas:    1.0000    
          i=2  nzeta=1  polorb=0  (5d)  (non-perturbative polarization shell)
            splnorm:   0.15000    
               vcte:    40.000    
               rinn:  -0.90000    
               qcoe:   0.11198-314
               qyuk:   0.49407-323
               qwid:   0.11582-309
                rcs:    0.0000    
            lambdas:    1.0000    
-------------------------------------------------------------------------------
L=0  Nkbl=1  erefs: 0.17977+309
L=1  Nkbl=1  erefs: 0.17977+309
L=2  Nkbl=2  erefs: 0.17977+309 0.17977+309
===============================================================================
</basis_specs>

Using PAO.SplitTailNorm
atom: Called for Te                    (Z =  52)
Maximum radius (at nrval) set to   50.00000 8518

read_vps: Pseudopotential generation method:
read_vps: ONCVPSP-3.Hamann's oncvpsp                        
Valence charge in pseudo generation:   16.00000

read_vps: Pseudopotential includes a core correction:
read_vps: Pseudo-core for xc-correction

xc_check: Exchange-correlation functional:
xc_check: GGA Perdew, Burke & Ernzerhof 1996
Got Vlocal (oncv-fit) from psml data
Choosing vlocal chloc cutoff:  3.575256
qtot up to nchloc:   15.99942675
atom: Maximum radius for chlocal:    3.57526
atom: Maximum radius for r*vlocal+2*Zval:    3.57526
Reading KB projs from Te psml data
Using lj projectors in PSML file

PSML: Kleinman-Bylander projectors: 
   l= 0   rc=  2.294422   Ekb=  1.571257
   l= 0   rc=  2.294422   Ekb= 12.749547
j- l= 1   rc=  1.941952   Ekb=  1.822369
j+ l= 1   rc=  1.941952   Ekb=  2.479422
j- l= 1   rc=  1.940001   Ekb= 10.232247
j+ l= 1   rc=  1.941952   Ekb= 11.939201
j- l= 2   rc=  1.828279   Ekb=-12.109268
j+ l= 2   rc=  1.828279   Ekb=-11.866367
j- l= 2   rc=  1.828279   Ekb= -3.780429
j+ l= 2   rc=  1.828279   Ekb= -3.663335

PSML: Total number of  Kleinman-Bylander projectors:  34
atom: -------------------------------------------------------------------------

atom: SANKEY-TYPE ORBITALS:
atom: Selected multiple-zeta basis: split     

SPLIT: Orbitals with angular momentum L= 0

SPLIT: Basis orbitals for state 5s

SPLIT: PAO cut-off radius determined from an
SPLIT: energy shift=  0.003675 Ry
Split based on tail norm

   izeta = 1
                 lambda =    1.000000
                     rc =    5.523551
                 energy =   -1.104618
                kinetic =    0.692887
    potential(screened) =   -1.797505
       potential(ionic) =  -16.033046

   izeta = 2
                 rmatch =    3.721573
              splitnorm =    0.150000
                 energy =   -0.608320
                kinetic =    1.526749
    potential(screened) =   -2.135068
       potential(ionic) =  -17.525650

SPLIT: Orbitals with angular momentum L= 1

SPLIT: Basis orbitals for state 5p

SPLIT: PAO cut-off radius determined from an
SPLIT: energy shift=  0.003675 Ry
Split based on tail norm

   izeta = 1
                 lambda =    1.000000
                     rc =    7.137980
                 energy =   -0.433143
                kinetic =    0.856075
    potential(screened) =   -1.289218
       potential(ionic) =  -13.351430

   izeta = 2
                 rmatch =    4.883118
              splitnorm =    0.150000
                 energy =   -0.328377
                kinetic =    1.259496
    potential(screened) =   -1.587873
       potential(ionic) =  -15.095785

SPLIT: Orbitals with angular momentum L= 2

SPLIT: Basis orbitals for state 4d

SPLIT: PAO cut-off radius determined from an
SPLIT: energy shift=  0.003675 Ry
Split based on tail norm

   izeta = 1
                 lambda =    1.000000
                     rc =    3.201794
                 energy =   -3.051455
                kinetic =   10.963488
    potential(screened) =  -14.014942
       potential(ionic) =  -34.612552

SPLIT: Basis orbitals for state 5d
SPLIT: Non-perturbative polarization orbs for state 5p
SPLIT: rc(1st zeta) (re)set to: 7.1380 (expansion factor: 1.0000)
Split based on tail norm

   izeta = 1
                 lambda =    1.000000
                     rc =    7.137980
                 energy =    0.272903
                kinetic =    1.062087
    potential(screened) =   -0.789184
       potential(ionic) =   -9.226723
atom: Total number of Sankey-type orbitals: 18

atm_pop: Valence configuration (for local Pseudopot. screening):
 5s( 2.00)                                                            
 5p( 4.00)                                                            
 4d(10.00) 5d( 0.00)                                                  
Vna: chval, zval:   16.00000  16.00000

Vna:  Cut-off radius for the neutral-atom potential:   7.137980
comcore: Pseudo-core radius Rcore=  2.793391

atom: _________________________________________________________________________

prinput: Basis input 

PAO.BasisType split     

%block ChemicalSpeciesLabel
    1   41 Nb                      # Species index, atomic number, species label
    2   26 Fe                      # Species index, atomic number, species label
    3   52 Te                      # Species index, atomic number, species label
%endblock ChemicalSpeciesLabel

%block PAO.Basis                 # Define Basis set
# WARNING: This information might be incomplete!
Nb                    5                    # Species label, number of l-shells
 n=4   0   1                         # n, l, Nzeta 
   3.313   
   1.000   
 n=5   0   2                         # n, l, Nzeta 
   8.986      6.432   
   1.000      1.000   
 n=4   1   1                         # n, l, Nzeta 
   3.835   
   1.000   
 n=5   1   1                         # n, l, Nzeta 
   8.986   
   1.000   
 n=4   2   2                         # n, l, Nzeta 
   7.152      4.635   
   1.000      1.000   
Fe                    5                    # Species label, number of l-shells
 n=3   0   1                         # n, l, Nzeta 
   2.583   
   1.000   
 n=4   0   2                         # n, l, Nzeta 
   7.400      5.103   
   1.000      1.000   
 n=3   1   1                         # n, l, Nzeta 
   2.890   
   1.000   
 n=4   1   1                         # n, l, Nzeta 
   7.400   
   1.000   
 n=3   2   2                         # n, l, Nzeta 
   4.734      2.743   
   1.000      1.000   
Te                    4                    # Species label, number of l-shells
 n=5   0   2                         # n, l, Nzeta 
   5.524      3.722   
   1.000      1.000   
 n=5   1   2                         # n, l, Nzeta 
   7.138      4.883   
   1.000      1.000   
 n=4   2   1                         # n, l, Nzeta 
   3.202   
   1.000   
 n=5   2   1                         # n, l, Nzeta 
   7.138   
   1.000   
%endblock PAO.Basis

prinput: ----------------------------------------------------------------------

Dumping basis to NetCDF file Nb.ion.nc
Dumping basis to NetCDF file Fe.ion.nc
Dumping basis to NetCDF file Te.ion.nc
coor:   Atomic-coordinates input format  =     Fractional

siesta: Atomic coordinates (Bohr) and species
siesta:      5.99488   7.31073   4.47311  1        1
siesta:     -0.00000   7.31073  12.03514  1        2
siesta:     -0.00000   7.31073   3.08894  1        3
siesta:      5.99488   7.31073  10.65098  1        4
siesta:      1.66583   8.85749   7.56204  2        5
siesta:      7.66071   5.76396   0.00000  2        6
siesta:     10.32392   5.76396   7.56204  2        7
siesta:      4.32904   8.85749   0.00000  2        8
siesta:      8.99232   2.79551  11.34306  3        9
siesta:      2.91090   4.00557   0.00000  3       10
siesta:      9.07885  10.61588   0.00000  3       11
siesta:      2.99743  11.82594  11.34306  3       12
siesta:      8.90578  10.61588   7.56204  3       13
siesta:      3.08397   4.00557   7.56204  3       14
siesta:      2.99743  11.82594   3.78102  3       15
siesta:      8.99232   2.79551   3.78102  3       16

siesta: System type = bulk      

initatomlists: Number of atoms, orbitals, and projectors:     16   296   544

siesta: ******************** Simulation parameters ****************************
siesta:
siesta: The following are some of the parameters of the simulation.
siesta: A complete list of the parameters used, including default values,
siesta: can be found in file out.fdf
siesta:
redata: Spin configuration                          = spin-orbit+offsite
redata: Number of spin components                   = 8
redata: Time-Reversal Symmetry                      = F
redata: Spin spiral                                 = F
redata: Long output                                 =   F
redata: Number of Atomic Species                    =        3
redata: Charge density info will appear in .RHO file
redata: Write Mulliken charges (when)               = end
redata: Write Mulliken Pop.                         = Atomic and Orbital charges
redata: Write Hirshfeld charges (when)              = none
redata: Write Voronoi charges (when)                = none
redata: Write spin charge (when)                    = scf
redata: Matel table size (NRTAB)                    =     1024
redata: Mesh Cutoff                                 =   150.0000 Ry
redata: Net charge of the system                    =     0.0000 |e|
redata: Min. number of SCF Iter                     =        0
redata: Max. number of SCF Iter                     =     1000
redata: SCF convergence failure will abort job
redata: SCF mix quantity                            = Hamiltonian
redata: Mix DM or H after convergence               =   F
redata: Recompute H after scf cycle                 =   F
redata: Mix DM in first SCF step                    =   T
redata: Write Pulay info on disk                    =   F
redata: New DM Occupancy tolerance                  = 0.000000000001
redata: No kicks to SCF
redata: DM Mixing Weight for Kicks                  =     0.5000
redata: Require Harris convergence for SCF          =   F
redata: Harris energy tolerance for SCF             =     0.000100 eV
redata: Require DM convergence for SCF              =   T
redata: DM tolerance for SCF                        =     0.000500
redata: Require EDM convergence for SCF             =   F
redata: EDM tolerance for SCF                       =     0.001000 eV
redata: Require H convergence for SCF               =   T
redata: Hamiltonian tolerance for SCF               =     0.005000 eV
redata: Require (free) Energy convergence for SCF   =   F
redata: (free) Energy tolerance for SCF             =     0.000100 eV
redata: Using DFT-D3 dispersion                     =   F
redata: Using Saved Data (generic)                  =   F
redata: Use continuation files for DM               =   T
redata: Neglect nonoverlap interactions             =   F
redata: Method of Calculation                       = Diagonalization
redata: Electronic Temperature                      =   299.9863 K
redata: Fix the spin of the system                  =   F
redata: Split SR and SO contributions               =   F
redata: Max. number of TDED Iter                    =        1
redata: Number of TDED substeps                     =        3
redata: Dynamics option                             = CG coord. optimization
redata: Variable cell                               =   T
redata: Use continuation files for CG               =   F
redata: Max atomic displ per move                   =     0.1058 Ang
redata: Maximum number of optimization moves        =      100
redata: Force tolerance                             =     0.0100 eV/Ang
redata: Stress tolerance                            =     1.0000 GPa
mix.SCF: Pulay mixing                            = Pulay
mix.SCF:    Variant                              = stable
mix.SCF:    History steps                        = 10
mix.SCF:    Linear mixing weight                 =     0.100000
mix.SCF:    Mixing weight                        =     0.100000
mix.SCF:    SVD condition                        = 0.1000E-07
mix.SCF:    Restart steps                        = 49
mix.SCF:    Restart save steps                   = 1
mix.SCF:    Number of mixing iterations          = 49
mix.SCF:    Following mixer                      = Linear-Kick
mix.SCF: Linear mixing                           = Linear-Kick
mix.SCF:    Mixing weight                        =     0.500000
mix.SCF:    Number of mixing iterations          = 1
mix.SCF:    Following mixer                      = Pulay
mix.SCF: Spin-component mixing                   all
redata: Save all siesta data in one NC              =   F
redata: ***********************************************************************

%block SCF.Mixers
  Pulay
  Linear-Kick
%endblock SCF.Mixers

%block SCF.Mixer.Pulay
  # Mixing method
  method pulay
  variant stable

  # Mixing options
  weight 0.1000
  weight.linear 0.1000
  history 10
  restart 49
  restart.save 1

  # Continuation options
  iterations 49
  next Linear-Kick
%endblock SCF.Mixer.Pulay

%block SCF.Mixer.Linear-Kick
  # Mixing method
  method linear

  # Mixing options
  weight 0.5000

  # Continuation options
  iterations 1
  next Pulay
%endblock SCF.Mixer.Linear-Kick

DM_history_depth set to one: no extrapolation allowed by default for geometry relaxation
Size of DM history Fstack: 1
Total number of electrons:   244.000000
Total ionic charge:   244.000000

* ProcessorY, Blocksize:    4   9


* Orbital distribution balance (max,min):    17     9

k-point displ. along   1 input, could be:     0.00    0.50
k-point displ. along   2 input, could be:     0.00    0.50
k-point displ. along   3 input, could be:     0.00    0.50

Time-reversal symmetry not used.

siesta: k-grid: Number of k-points = 1000
siesta: k-points from Monkhorst-Pack grid
siesta: k-cutoff (effective) =    31.724 Ang
siesta: k-point supercell and displacements
siesta: k-grid:    10     0     0      0.000
siesta: k-grid:     0    10     0      0.000
siesta: k-grid:     0     0    10      0.000

diag: Algorithm                                     = D&C
diag: Parallel over k                               =   F
diag: Use parallel 2D distribution                  =   T
diag: Parallel block-size                           = 9
diag: Parallel distribution                         =     4 x     8
diag: Used triangular part                          = Lower
diag: Absolute tolerance                            =  0.100E-15
diag: Orthogonalization factor                      =  0.100E-05
diag: Memory factor                                 =  1.0000

superc: Internal auxiliary supercell:     5 x     3 x     5  =      75
superc: Number of atoms, orbitals, and projectors:   1200  22200  40800


ts: **************************************************************
ts: Save H and S matrices                           =    F
ts: Save DM and EDM matrices                        =    F
ts: Only save the overlap matrix S                  =    F
ts: **************************************************************

************************ Begin: TS CHECKS AND WARNINGS ************************
************************ End: TS CHECKS AND WARNINGS **************************


                     ====================================
                        Begin CG opt. move =      0
                     ====================================

superc: Internal auxiliary supercell:     5 x     3 x     5  =      75
superc: Number of atoms, orbitals, and projectors:   1200  22200  40800

outcell: Unit cell vectors (Ang):
        6.344706   -0.000002    0.000000
       -0.000003    7.737341    0.000000
        0.000000    0.000000    8.003319

outcell: Cell vector modules (Ang)   :    6.344706    7.737341    8.003319
outcell: Cell angles (23,13,12) (deg):     90.0000     90.0000     90.0000
outcell: Cell volume (Ang**3)        :    392.8922
<dSpData1D:S at geom step 0
  <sparsity:sparsity for geom step 0
    nrows_g=296 nrows=17 sparsity=.2380 nnzs=20856, refcount: 9>
  <dData1D:(new from dSpData1D) n=20856, refcount: 1>
refcount: 1>
new_DM -- step:     1
Initializing Density Matrix...

Attempting to read DM from file... Failed...
DM filled with atomic data (user-defined):
<dSpData2D:DM initialized from atoms
  <sparsity:sparsity for geom step 0
    nrows_g=296 nrows=17 sparsity=.2380 nnzs=20856, refcount: 10>
  <dData2D:DM n=20856 m=8, refcount: 1>
refcount: 1>

InitMesh: MESH = 48 x 60 x 60 = 172800
InitMesh: Mesh cutoff (required, used) =   150.000   155.333 Ry
New grid distribution [1]: sub = 2
New grid distribution [2]: sub = 2
New grid distribution [3]: sub = 2
Setting up quadratic distribution...

stepf: Fermi-Dirac step function

siesta: Program's energy decomposition (eV):
siesta: Ebs     =     -8261.227257
siesta: Eions   =     56011.441932
siesta: Ena     =      6972.219335
siesta: Ekin    =     20231.169507
siesta: Enl(+so)=     -6223.623035
siesta: Eso(nil)=         0.000000
siesta: Edftu   =         9.634927
siesta: DEna    =       453.958751
siesta: DUscf   =        25.751409
siesta: DUext   =         0.000000
siesta: Ex      =     -8154.460454
siesta: Ec      =      -506.847671
siesta: Exc     =     -8661.308125
siesta: EbV     =         0.000000
siesta: eta*DQ  =         0.000000
siesta: Emadel  =         0.000000
siesta: Emeta   =         0.000000
siesta: Emolmec =         0.000000
siesta: Ekinion =         0.000000
siesta: Eharris =    -43110.935664
siesta: Etot    =    -43203.639164
siesta: FreeEng =    -43203.662572

        iscf     Eharris(eV)        E_KS(eV)     FreeEng(eV)     dDmax    Ef(eV) dHmax(eV)
   scf:    1   -43110.935664   -43203.639164   -43203.662572  0.598482 -3.184706 12.170204
     spin moment: {S} , |S| = {    0.00000   12.62049    0.00000 }    12.62049
timer: Routine,Calls,Time,% = IterSCF        1     213.242  68.01
   scf:    2   -43222.249044   -43216.724257   -43216.754944  0.140560 -3.722298  5.004171
     spin moment: {S} , |S| = {    0.00000   11.35094    0.00000 }    11.35094
   scf:    3   -43219.913289   -43218.687184   -43218.718050  0.045159 -3.904383  2.252813
     spin moment: {S} , |S| = {    0.00000   11.30529    0.00000 }    11.30529
   scf:    4   -43220.036511   -43219.398799   -43219.428391  0.042043 -3.993695  1.389803
     spin moment: {S} , |S| = {    0.00000   11.11244    0.00000 }    11.11244
   scf:    5   -43220.925690   -43220.300513   -43220.324902  0.106079 -4.143983  0.509608
     spin moment: {S} , |S| = {   -0.00000   10.69131    0.00000 }    10.69131
   scf:    6   -43220.513568   -43220.434234   -43220.452883  0.038602 -4.222737  1.142065
     spin moment: {S} , |S| = {   -0.00001   10.06490    0.00000 }    10.06490
   scf:    7   -43220.400787   -43220.418075   -43220.436727  0.000849 -4.224940  1.233103
     spin moment: {S} , |S| = {   -0.00001   10.06240    0.00000 }    10.06240
   scf:    8   -43220.426463   -43220.422215   -43220.440844  0.000239 -4.224709  1.216565
     spin moment: {S} , |S| = {   -0.00001   10.06081    0.00000 }    10.06081
   scf:    9   -43220.634800   -43220.522637   -43220.539854  0.014874 -4.225236  0.990981
     spin moment: {S} , |S| = {   -0.00000    9.91583    0.00000 }     9.91583
   scf:   10   -43220.725795   -43220.616844   -43220.633636  0.018493 -4.216795  0.756197
     spin moment: {S} , |S| = {   -0.00001    9.76276    0.00000 }     9.76276
   scf:   11   -43220.889132   -43220.730391   -43220.747355  0.029618 -4.241923  0.693138
     spin moment: {S} , |S| = {   -0.00003    9.52694    0.00000 }     9.52694
   scf:   12   -43220.646015   -43220.697855   -43220.714648  0.016436 -4.239417  0.426620
     spin moment: {S} , |S| = {   -0.00002    9.61284    0.00000 }     9.61284
   scf:   13   -43221.013958   -43220.827795   -43220.843539  0.035842 -4.239978  0.098312
     spin moment: {S} , |S| = {   -0.00004    9.40966    0.00000 }     9.40966
   scf:   14   -43220.920476   -43220.867466   -43220.882558  0.014589 -4.242399  0.097438
     spin moment: {S} , |S| = {   -0.00005    9.39727    0.00000 }     9.39727
   scf:   15   -43220.929790   -43220.893474   -43220.908323  0.011957 -4.244214  0.069635
     spin moment: {S} , |S| = {   -0.00006    9.36377    0.00000 }     9.36377
   scf:   16   -43220.897131   -43220.895947   -43220.910818  0.001956 -4.244529  0.067150
     spin moment: {S} , |S| = {   -0.00006    9.35711    0.00000 }     9.35711
   scf:   17   -43220.909671   -43220.902590   -43220.917473  0.003764 -4.243979  0.061190
     spin moment: {S} , |S| = {   -0.00007    9.35579    0.00000 }     9.35579
   scf:   18   -43220.919422   -43220.910337   -43220.925280  0.004632 -4.242978  0.054633
     spin moment: {S} , |S| = {   -0.00007    9.35679    0.00000 }     9.35679
   scf:   19   -43220.960333   -43220.925388   -43220.940682  0.013908 -4.242796  0.027441
     spin moment: {S} , |S| = {   -0.00008    9.37010    0.00000 }     9.37010
   scf:   20   -43220.924587   -43220.924678   -43220.939948  0.002065 -4.244358  0.035178
     spin moment: {S} , |S| = {   -0.00008    9.37234    0.00000 }     9.37234
   scf:   21   -43220.938977   -43220.928321   -43220.943754  0.008967 -4.243473  0.016440
     spin moment: {S} , |S| = {   -0.00008    9.36615    0.00000 }     9.36615
   scf:   22   -43220.929178   -43220.928415   -43220.943829  0.001202 -4.244091  0.008934
     spin moment: {S} , |S| = {   -0.00008    9.36629    0.00000 }     9.36629
   scf:   23   -43220.928816   -43220.928579   -43220.944010  0.001238 -4.244064  0.005444
     spin moment: {S} , |S| = {   -0.00008    9.37059    0.00000 }     9.37059
   scf:   24   -43220.928754   -43220.928500   -43220.943918  0.000753 -4.244537  0.005848
     spin moment: {S} , |S| = {   -0.00008    9.37171    0.00000 }     9.37171
   scf:   25   -43220.928505   -43220.928583   -43220.944008  0.000587 -4.244727  0.003698
     spin moment: {S} , |S| = {   -0.00008    9.37097    0.00000 }     9.37097
   scf:   26   -43220.928612   -43220.928682   -43220.944113  0.000473 -4.244724  0.001936
     spin moment: {S} , |S| = {   -0.00008    9.36913    0.00000 }     9.36913

SCF Convergence by DM+H criterion
max |DM_out - DM_in|         :     0.0004732973
max |H_out - H_in|      (eV) :     0.0019359699
SCF cycle converged after 26 iterations

Using DM_out to compute the final energy and forces

siesta: E_KS(eV) =           -43220.9287

siesta: E_KS - E_eggbox =    -43220.9287

siesta: Atomic forces (eV/Ang):
----------------------------------------
   Tot   -0.000006    0.000009    0.000002
----------------------------------------
   Max    0.566373
   Res    0.258204    sqrt( Sum f_i^2 / 3N )
----------------------------------------
   Max    0.566373    constrained

Stress tensor Voigt[x,y,z,yz,xz,xy] (kbar):      -24.44      -35.08      -48.16       -0.00        0.00       -0.00
(Free)E + p*V (eV/cell)   -43212.1431
Target enthalpy (eV/cell)   -43220.9441

siesta: Stress tensor (static) (eV/Ang**3):
        -0.015251   -0.000000    0.000000
        -0.000000   -0.021893   -0.000000
         0.000000   -0.000000   -0.030057

siesta: Pressure (static):         35.88957810  kBar

siesta: Stress tensor (total) (eV/Ang**3):
        -0.015251   -0.000000    0.000000
        -0.000000   -0.021893   -0.000000
         0.000000   -0.000000   -0.030057

siesta: Pressure (total):         35.88957810  kBar

cgvc: No target stress found, assuming hydrostatic MD.TargetPressure.

cgvc: Target stress (kBar)
cgvc:        -0.000       0.000       0.000
cgvc:         0.000      -0.000       0.000
cgvc:         0.000       0.000      -0.000

                     ====================================
                        Begin CG opt. move =      1
                     ====================================
k-point displ. along   1 input, could be:     0.00    0.50
k-point displ. along   2 input, could be:     0.00    0.50
k-point displ. along   3 input, could be:     0.00    0.50

Time-reversal symmetry not used.

siesta: k-grid: Number of k-points = 1000
siesta: k-points from Monkhorst-Pack grid
siesta: k-cutoff (effective) =    31.945 Ang
siesta: k-point supercell and displacements
siesta: k-grid:    10     0     0      0.000
siesta: k-grid:     0    10     0      0.000
siesta: k-grid:     0     0    10      0.000

superc: Internal auxiliary supercell:     5 x     3 x     5  =      75
superc: Number of atoms, orbitals, and projectors:   1200  22200  40800

outcell: Unit cell vectors (Ang):
        6.389049   -0.000001   -0.000000
       -0.000001    7.814967    0.000000
       -0.000000    0.000000    8.113554

outcell: Cell vector modules (Ang)   :    6.389049    7.814967    8.113554
outcell: Cell angles (23,13,12) (deg):     90.0000     90.0000     90.0000
outcell: Cell volume (Ang**3)        :    405.1114
<dSpData1D:S at geom step 1
  <sparsity:sparsity for geom step 1
    nrows_g=296 nrows=17 sparsity=.2336 nnzs=20469, refcount: 9>
  <dData1D:(new from dSpData1D) n=20469, refcount: 1>
refcount: 1>
new_DM -- step:     2
Re-using DM from previous geometries...
Number of DMs in history: 1
 DM extrapolation coefficients: 
1   1.00000
New DM after history re-use:
<dSpData2D:SpM extrapolated using coords
  <sparsity:sparsity for geom step 1
    nrows_g=296 nrows=17 sparsity=.2336 nnzs=20469, refcount: 11>
  <dData2D:(temp array for extrapolation) n=20469 m=8, refcount: 1>
refcount: 1>

InitMesh: MESH = 48 x 60 x 60 = 172800
InitMesh: Mesh cutoff (required, used) =   150.000   151.141 Ry
New grid distribution [1]: sub = 2
New grid distribution [2]: sub = 2
New grid distribution [3]: sub = 2
Setting up quadratic distribution...

        iscf     Eharris(eV)        E_KS(eV)     FreeEng(eV)     dDmax    Ef(eV) dHmax(eV)
   scf:    1   -43222.850057   -43221.009409   -43221.025087  0.035311 -4.192066  1.419674
     spin moment: {S} , |S| = {   -0.00008    9.50830    0.00000 }     9.50830
   scf:    2   -43196.311782   -43213.204301   -43213.222301  0.079816 -4.496087 10.145002
     spin moment: {S} , |S| = {   -0.00005    8.92426    0.00000 }     8.92426
   scf:    3   -43222.123724   -43221.155041   -43221.170799  0.071810 -4.234723  0.099877
     spin moment: {S} , |S| = {   -0.00008    9.45696    0.00000 }     9.45696
   scf:    4   -43221.157440   -43221.156884   -43221.172641  0.001228 -4.239725  0.079225
     spin moment: {S} , |S| = {   -0.00008    9.45726    0.00000 }     9.45726
   scf:    5   -43221.160684   -43221.159129   -43221.174871  0.002958 -4.243812  0.036212
     spin moment: {S} , |S| = {   -0.00008    9.46171    0.00000 }     9.46171
   scf:    6   -43221.159070   -43221.159371   -43221.175118  0.000415 -4.245819  0.027391
     spin moment: {S} , |S| = {   -0.00008    9.46022    0.00000 }     9.46022
   scf:    7   -43221.160411   -43221.159804   -43221.175563  0.001006 -4.245496  0.018086
     spin moment: {S} , |S| = {   -0.00008    9.45796    0.00000 }     9.45796
   scf:    8   -43221.160131   -43221.159825   -43221.175587  0.000442 -4.244119  0.032632
     spin moment: {S} , |S| = {   -0.00008    9.45709    0.00000 }     9.45709
   scf:    9   -43221.160165   -43221.160106   -43221.175881  0.001023 -4.244164  0.005484
     spin moment: {S} , |S| = {   -0.00008    9.45132    0.00000 }     9.45132
   scf:   10   -43221.160185   -43221.160147   -43221.175930  0.000386 -4.244058  0.008183
     spin moment: {S} , |S| = {   -0.00008    9.44814    0.00000 }     9.44814
   scf:   11   -43221.160261   -43221.160172   -43221.175959  0.000180 -4.243876  0.003729
     spin moment: {S} , |S| = {   -0.00008    9.44677    0.00000 }     9.44677

SCF Convergence by DM+H criterion
max |DM_out - DM_in|         :     0.0001801454
max |H_out - H_in|      (eV) :     0.0037292245
SCF cycle converged after 11 iterations

Using DM_out to compute the final energy and forces

siesta: E_KS(eV) =           -43221.1602

siesta: Atomic forces (eV/Ang):
----------------------------------------
   Tot    0.000002   -0.000001   -0.000002
----------------------------------------
   Max    0.293346
   Res    0.125290    sqrt( Sum f_i^2 / 3N )
----------------------------------------
   Max    0.293346    constrained

Stress tensor Voigt[x,y,z,yz,xz,xy] (kbar):       -1.40       -0.37      -15.41        0.00       -0.00       -0.00
(Free)E + p*V (eV/cell)   -43219.7271
Target enthalpy (eV/cell)   -43221.1760

siesta: Stress tensor (static) (eV/Ang**3):
        -0.000876   -0.000000   -0.000000
        -0.000000   -0.000233    0.000000
        -0.000000    0.000000   -0.009620

siesta: Pressure (static):          5.73020863  kBar

siesta: Stress tensor (total) (eV/Ang**3):
        -0.000876   -0.000000   -0.000000
        -0.000000   -0.000233    0.000000
        -0.000000    0.000000   -0.009620

siesta: Pressure (total):          5.73020863  kBar

                     ====================================
                        Begin CG opt. move =      2
                     ====================================
k-point displ. along   1 input, could be:     0.00    0.50
k-point displ. along   2 input, could be:     0.00    0.50
k-point displ. along   3 input, could be:     0.00    0.50

Time-reversal symmetry not used.

siesta: k-grid: Number of k-points = 1000
siesta: k-points from Monkhorst-Pack grid
siesta: k-cutoff (effective) =    32.286 Ang
siesta: k-point supercell and displacements
siesta: k-grid:    10     0     0      0.000
siesta: k-grid:     0    10     0      0.000
siesta: k-grid:     0     0    10      0.000

superc: Internal auxiliary supercell:     5 x     3 x     5  =      75
superc: Number of atoms, orbitals, and projectors:   1200  22200  40800

outcell: Unit cell vectors (Ang):
        6.457194    0.000001   -0.000000
        0.000001    7.934261    0.000000
       -0.000000    0.000000    8.282961

outcell: Cell vector modules (Ang)   :    6.457194    7.934261    8.282961
outcell: Cell angles (23,13,12) (deg):     90.0000     90.0000     90.0000
outcell: Cell volume (Ang**3)        :    424.3614
<dSpData1D:S at geom step 2
  <sparsity:sparsity for geom step 2
    nrows_g=296 nrows=17 sparsity=.2252 nnzs=19735, refcount: 9>
  <dData1D:(new from dSpData1D) n=19735, refcount: 1>
refcount: 1>
new_DM -- step:     3
Re-using DM from previous geometries...
Number of DMs in history: 1
 DM extrapolation coefficients: 
1   1.00000
New DM after history re-use:
<dSpData2D:SpM extrapolated using coords
  <sparsity:sparsity for geom step 2
    nrows_g=296 nrows=17 sparsity=.2252 nnzs=19735, refcount: 11>
  <dData2D:(temp array for extrapolation) n=19735 m=8, refcount: 1>
refcount: 1>
Note: For starting DM, Qtot, Tr[D*S] =        244.00000000        243.68923747

InitMesh: MESH = 48 x 60 x 64 = 184320
InitMesh: Mesh cutoff (required, used) =   150.000   152.720 Ry
New grid distribution [1]: sub = 2
New grid distribution [2]: sub = 2
New grid distribution [3]: sub = 2
Setting up quadratic distribution...

        iscf     Eharris(eV)        E_KS(eV)     FreeEng(eV)     dDmax    Ef(eV) dHmax(eV)
   scf:    1   -43221.031067   -43220.567987   -43220.584670  0.060640 -4.176955  2.227103
     spin moment: {S} , |S| = {   -0.00008    9.65852    0.00000 }     9.65852
   scf:    2   -43151.627850   -43198.622256   -43198.643958  0.147564 -4.542914 16.864000
     spin moment: {S} , |S| = {   -0.00007    8.32004    0.00000 }     8.32004
   scf:    3   -43223.231411   -43220.906164   -43220.922652  0.134706 -4.226486  0.216569
     spin moment: {S} , |S| = {   -0.00008    9.55893    0.00000 }     9.55893
   scf:    4   -43220.913953   -43220.911768   -43220.928244  0.002392 -4.235544  0.143672
     spin moment: {S} , |S| = {   -0.00008    9.55412    0.00000 }     9.55412
   scf:    5   -43220.920454   -43220.917580   -43220.934063  0.005052 -4.245105  0.062333
     spin moment: {S} , |S| = {   -0.00008    9.55928    0.00000 }     9.55928
   scf:    6   -43220.917698   -43220.918082   -43220.934571  0.000616 -4.247567  0.041407
     spin moment: {S} , |S| = {   -0.00008    9.55405    0.00000 }     9.55405
   scf:    7   -43220.919781   -43220.918852   -43220.935386  0.001656 -4.246132  0.049356
     spin moment: {S} , |S| = {   -0.00008    9.54785    0.00000 }     9.54785
   scf:    8   -43220.919068   -43220.918934   -43220.935477  0.000340 -4.245754  0.050303
     spin moment: {S} , |S| = {   -0.00008    9.54593    0.00000 }     9.54593
   scf:    9   -43220.919897   -43220.919368   -43220.935953  0.001774 -4.244737  0.014661
     spin moment: {S} , |S| = {   -0.00008    9.53215    0.00000 }     9.53215
   scf:   10   -43220.919383   -43220.919379   -43220.935977  0.000401 -4.244688  0.010663
     spin moment: {S} , |S| = {   -0.00008    9.52712    0.00000 }     9.52712
   scf:   11   -43220.919552   -43220.919405   -43220.936020  0.000457 -4.244468  0.005598
     spin moment: {S} , |S| = {   -0.00008    9.52289    0.00000 }     9.52289
   scf:   12   -43220.919465   -43220.919415   -43220.936034  0.000122 -4.244395  0.006805
     spin moment: {S} , |S| = {   -0.00008    9.52226    0.00000 }     9.52226
   scf:   13   -43220.919476   -43220.919418   -43220.936061  0.000514 -4.244541  0.001947
     spin moment: {S} , |S| = {   -0.00008    9.51383    0.00000 }     9.51383
   scf:   14   -43220.919423   -43220.919417   -43220.936065  0.000098 -4.244559  0.001548
     spin moment: {S} , |S| = {   -0.00008    9.51247    0.00000 }     9.51247

SCF Convergence by DM+H criterion
max |DM_out - DM_in|         :     0.0000977730
max |H_out - H_in|      (eV) :     0.0015477408
SCF cycle converged after 14 iterations

Using DM_out to compute the final energy and forces

siesta: E_KS(eV) =           -43220.9194

siesta: Atomic forces (eV/Ang):
----------------------------------------
   Tot   -0.000000   -0.000003    0.000002
----------------------------------------
   Max    0.659423
   Res    0.280037    sqrt( Sum f_i^2 / 3N )
----------------------------------------
   Max    0.659423    constrained

Stress tensor Voigt[x,y,z,yz,xz,xy] (kbar):       27.54       43.00       25.29       -0.00       -0.00        0.00
(Free)E + p*V (eV/cell)   -43229.3965
Target enthalpy (eV/cell)   -43220.9361

siesta: Stress tensor (static) (eV/Ang**3):
         0.017188    0.000000   -0.000000
         0.000000    0.026838   -0.000000
        -0.000000   -0.000000    0.015784

siesta: Pressure (static):        -31.94221492  kBar

siesta: Stress tensor (total) (eV/Ang**3):
         0.017188    0.000000   -0.000000
         0.000000    0.026838   -0.000000
        -0.000000   -0.000000    0.015784

siesta: Pressure (total):        -31.94221492  kBar

                     ====================================
                        Begin CG opt. move =      3
                     ====================================
k-point displ. along   1 input, could be:     0.00    0.50
k-point displ. along   2 input, could be:     0.00    0.50
k-point displ. along   3 input, could be:     0.00    0.50

Time-reversal symmetry not used.

siesta: k-grid: Number of k-points = 1000
siesta: k-points from Monkhorst-Pack grid
siesta: k-cutoff (effective) =    32.018 Ang
siesta: k-point supercell and displacements
siesta: k-grid:    10     0     0      0.000
siesta: k-grid:     0    10     0      0.000
siesta: k-grid:     0     0    10      0.000

superc: Internal auxiliary supercell:     5 x     3 x     5  =      75
superc: Number of atoms, orbitals, and projectors:   1200  22200  40800

outcell: Unit cell vectors (Ang):
        6.403515   -0.000000   -0.000000
       -0.000001    7.840292    0.000000
       -0.000000    0.000000    8.149518

outcell: Cell vector modules (Ang)   :    6.403515    7.840292    8.149518
outcell: Cell angles (23,13,12) (deg):     90.0000     90.0000     90.0000
outcell: Cell volume (Ang**3)        :    409.1501
<dSpData1D:S at geom step 3
  <sparsity:sparsity for geom step 3
    nrows_g=296 nrows=17 sparsity=.2291 nnzs=20077, refcount: 9>
  <dData1D:(new from dSpData1D) n=20077, refcount: 1>
refcount: 1>
new_DM -- step:     4
Re-using DM from previous geometries...
Number of DMs in history: 1
 DM extrapolation coefficients: 
1   1.00000
New DM after history re-use:
<dSpData2D:SpM extrapolated using coords
  <sparsity:sparsity for geom step 3
    nrows_g=296 nrows=17 sparsity=.2291 nnzs=20077, refcount: 11>
  <dData2D:(temp array for extrapolation) n=20077 m=8, refcount: 1>
refcount: 1>
Note: For starting DM, Qtot, Tr[D*S] =        244.00000000        244.27419298

InitMesh: MESH = 48 x 60 x 64 = 184320
InitMesh: Mesh cutoff (required, used) =   150.000   155.291 Ry
New grid distribution [1]: sub = 2
New grid distribution [2]: sub = 2
New grid distribution [3]: sub = 2
Setting up quadratic distribution...

        iscf     Eharris(eV)        E_KS(eV)     FreeEng(eV)     dDmax    Ef(eV) dHmax(eV)
   scf:    1   -43219.468933   -43220.899764   -43220.915791  0.048904 -4.294996  1.765330
     spin moment: {S} , |S| = {   -0.00008    9.34618    0.00000 }     9.34618
   scf:    2   -43178.241172   -43207.268883   -43207.284248  0.139796 -3.998347 13.111143
     spin moment: {S} , |S| = {   -0.00009   10.22461    0.00000 }    10.22461
   scf:    3   -43222.373576   -43221.112598   -43221.128598  0.128306 -4.258484  0.185181
     spin moment: {S} , |S| = {   -0.00008    9.42439    0.00000 }     9.42439
   scf:    4   -43221.119301   -43221.115888   -43221.131889  0.002012 -4.252950  0.125026
     spin moment: {S} , |S| = {   -0.00008    9.42942    0.00000 }     9.42942
   scf:    5   -43221.123884   -43221.119925   -43221.135937  0.004554 -4.242355  0.035915
     spin moment: {S} , |S| = {   -0.00008    9.42712    0.00000 }     9.42712
   scf:    6   -43221.121419   -43221.120633   -43221.136631  0.001350 -4.241663  0.030146
     spin moment: {S} , |S| = {   -0.00008    9.43113    0.00000 }     9.43113
   scf:    7   -43221.120428   -43221.120630   -43221.136622  0.000654 -4.242069  0.042549
     spin moment: {S} , |S| = {   -0.00008    9.43845    0.00000 }     9.43845
   scf:    8   -43221.121065   -43221.120947   -43221.136930  0.000848 -4.243343  0.015522
     spin moment: {S} , |S| = {   -0.00008    9.44178    0.00000 }     9.44178
   scf:    9   -43221.120950   -43221.121034   -43221.137013  0.000593 -4.243848  0.013327
     spin moment: {S} , |S| = {   -0.00008    9.44318    0.00000 }     9.44318
   scf:   10   -43221.121147   -43221.121095   -43221.137062  0.000635 -4.244081  0.005410
     spin moment: {S} , |S| = {   -0.00008    9.44837    0.00000 }     9.44837
   scf:   11   -43221.121068   -43221.121102   -43221.137067  0.000085 -4.244060  0.005243
     spin moment: {S} , |S| = {   -0.00008    9.44895    0.00000 }     9.44895
   scf:   12   -43221.121126   -43221.121114   -43221.137076  0.000083 -4.244019  0.002641
     spin moment: {S} , |S| = {   -0.00008    9.45049    0.00000 }     9.45049

SCF Convergence by DM+H criterion
max |DM_out - DM_in|         :     0.0000830869
max |H_out - H_in|      (eV) :     0.0026411224
SCF cycle converged after 12 iterations

Using DM_out to compute the final energy and forces

siesta: E_KS(eV) =           -43221.1211

siesta: Atomic forces (eV/Ang):
----------------------------------------
   Tot   -0.000001   -0.000002   -0.000001
----------------------------------------
   Max    0.241781
   Res    0.137998    sqrt( Sum f_i^2 / 3N )
----------------------------------------
   Max    0.241781    constrained

Stress tensor Voigt[x,y,z,yz,xz,xy] (kbar):        5.54        9.96       -5.04       -0.00        0.00       -0.00
(Free)E + p*V (eV/cell)   -43222.0272
Target enthalpy (eV/cell)   -43221.1371

siesta: Stress tensor (static) (eV/Ang**3):
         0.003457   -0.000000    0.000000
        -0.000000    0.006216   -0.000000
         0.000000   -0.000000   -0.003146

siesta: Pressure (static):         -3.48555538  kBar

siesta: Stress tensor (total) (eV/Ang**3):
         0.003457   -0.000000    0.000000
        -0.000000    0.006216   -0.000000
         0.000000   -0.000000   -0.003146

siesta: Pressure (total):         -3.48555538  kBar

cgvc: Finished line minimization    1.  Mean atomic displacement =    0.0663

                     ====================================
                        Begin CG opt. move =      4
                     ====================================
k-point displ. along   1 input, could be:     0.00    0.50
k-point displ. along   2 input, could be:     0.00    0.50
k-point displ. along   3 input, could be:     0.00    0.50

Time-reversal symmetry not used.

siesta: k-grid: Number of k-points = 1000
siesta: k-points from Monkhorst-Pack grid
siesta: k-cutoff (effective) =    31.921 Ang
siesta: k-point supercell and displacements
siesta: k-grid:    10     0     0      0.000
siesta: k-grid:     0    10     0      0.000
siesta: k-grid:     0     0    10      0.000

superc: Internal auxiliary supercell:     5 x     3 x     5  =      75
superc: Number of atoms, orbitals, and projectors:   1200  22200  40800

outcell: Unit cell vectors (Ang):
        6.384242    0.000002   -0.000000
        0.000001    7.788192    0.000000
       -0.000000    0.000000    8.252521

outcell: Cell vector modules (Ang)   :    6.384242    7.788192    8.252521
outcell: Cell angles (23,13,12) (deg):     90.0000     90.0000     90.0000
outcell: Cell volume (Ang**3)        :    410.3294
<dSpData1D:S at geom step 4
  <sparsity:sparsity for geom step 4
    nrows_g=296 nrows=17 sparsity=.2281 nnzs=19987, refcount: 9>
  <dData1D:(new from dSpData1D) n=19987, refcount: 1>
refcount: 1>
new_DM -- step:     5
Re-using DM from previous geometries...
Number of DMs in history: 1
 DM extrapolation coefficients: 
1   1.00000
New DM after history re-use:
<dSpData2D:SpM extrapolated using coords
  <sparsity:sparsity for geom step 4
    nrows_g=296 nrows=17 sparsity=.2281 nnzs=19987, refcount: 11>
  <dData2D:(temp array for extrapolation) n=19987 m=8, refcount: 1>
refcount: 1>

InitMesh: MESH = 48 x 60 x 64 = 184320
InitMesh: Mesh cutoff (required, used) =   150.000   156.230 Ry
New grid distribution [1]: sub = 2
New grid distribution [2]: sub = 2
New grid distribution [3]: sub = 2
Setting up quadratic distribution...

        iscf     Eharris(eV)        E_KS(eV)     FreeEng(eV)     dDmax    Ef(eV) dHmax(eV)
   scf:    1   -43221.128428   -43221.142919   -43221.159152  0.028252 -4.225536  0.295792
     spin moment: {S} , |S| = {   -0.00008    9.52374    0.00000 }     9.52374
   scf:    2   -43217.923547   -43220.137497   -43220.153505  0.048519 -4.357154  2.534700
     spin moment: {S} , |S| = {   -0.00012    9.62485    0.00000 }     9.62485
   scf:    3   -43221.309748   -43221.165047   -43221.181218  0.042267 -4.242208  0.052199
     spin moment: {S} , |S| = {   -0.00008    9.53323    0.00000 }     9.53323
   scf:    4   -43221.167020   -43221.166249   -43221.182417  0.001277 -4.242130  0.037116
     spin moment: {S} , |S| = {   -0.00008    9.53234    0.00000 }     9.53234
   scf:    5   -43221.168701   -43221.167640   -43221.183813  0.002567 -4.239608  0.018654
     spin moment: {S} , |S| = {   -0.00008    9.53121    0.00000 }     9.53121
   scf:    6   -43221.167896   -43221.167783   -43221.183958  0.000269 -4.239538  0.017540
     spin moment: {S} , |S| = {   -0.00008    9.53130    0.00000 }     9.53130
   scf:    7   -43221.169072   -43221.168365   -43221.184551  0.001424 -4.238761  0.011244
     spin moment: {S} , |S| = {   -0.00008    9.53168    0.00000 }     9.53168
   scf:    8   -43221.169089   -43221.168661   -43221.184856  0.000790 -4.237673  0.010102
     spin moment: {S} , |S| = {   -0.00008    9.53139    0.00000 }     9.53139
   scf:    9   -43221.169381   -43221.169132   -43221.185338  0.001131 -4.237840  0.007894
     spin moment: {S} , |S| = {   -0.00008    9.53122    0.00000 }     9.53122
   scf:   10   -43221.169334   -43221.169372   -43221.185588  0.001162 -4.238676  0.014436
     spin moment: {S} , |S| = {   -0.00008    9.53062    0.00000 }     9.53062
   scf:   11   -43221.169683   -43221.169450   -43221.185679  0.000622 -4.238045  0.004885
     spin moment: {S} , |S| = {   -0.00008    9.52900    0.00000 }     9.52900
   scf:   12   -43221.169498   -43221.169461   -43221.185695  0.000217 -4.237945  0.004385
     spin moment: {S} , |S| = {   -0.00008    9.52836    0.00000 }     9.52836

SCF Convergence by DM+H criterion
max |DM_out - DM_in|         :     0.0002174053
max |H_out - H_in|      (eV) :     0.0043848628
SCF cycle converged after 12 iterations

Using DM_out to compute the final energy and forces

siesta: E_KS(eV) =           -43221.1695

siesta: Atomic forces (eV/Ang):
----------------------------------------
   Tot   -0.000002    0.000002   -0.000001
----------------------------------------
   Max    0.239780
   Res    0.081303    sqrt( Sum f_i^2 / 3N )
----------------------------------------
   Max    0.239780    constrained

Stress tensor Voigt[x,y,z,yz,xz,xy] (kbar):       -7.06       -3.50        2.93       -0.00       -0.00        0.00
(Free)E + p*V (eV/cell)   -43220.5346
Target enthalpy (eV/cell)   -43221.1857

siesta: Stress tensor (static) (eV/Ang**3):
        -0.004404    0.000001   -0.000000
         0.000001   -0.002185   -0.000000
        -0.000000   -0.000000    0.001830

siesta: Pressure (static):          2.54211497  kBar

siesta: Stress tensor (total) (eV/Ang**3):
        -0.004404    0.000001   -0.000000
         0.000001   -0.002185   -0.000000
        -0.000000   -0.000000    0.001830

siesta: Pressure (total):          2.54211497  kBar

                     ====================================
                        Begin CG opt. move =      5
                     ====================================
k-point displ. along   1 input, could be:     0.00    0.50
k-point displ. along   2 input, could be:     0.00    0.50
k-point displ. along   3 input, could be:     0.00    0.50

Time-reversal symmetry not used.

siesta: k-grid: Number of k-points = 1000
siesta: k-points from Monkhorst-Pack grid
siesta: k-cutoff (effective) =    31.945 Ang
siesta: k-point supercell and displacements
siesta: k-grid:    10     0     0      0.000
siesta: k-grid:     0    10     0      0.000
siesta: k-grid:     0     0    10      0.000

superc: Internal auxiliary supercell:     5 x     3 x     5  =      75
superc: Number of atoms, orbitals, and projectors:   1200  22200  40800

outcell: Unit cell vectors (Ang):
        6.389008    0.000001   -0.000000
        0.000001    7.801075    0.000000
       -0.000000    0.000000    8.227051

outcell: Cell vector modules (Ang)   :    6.389008    7.801075    8.227051
outcell: Cell angles (23,13,12) (deg):     90.0000     90.0000     90.0000
outcell: Cell volume (Ang**3)        :    410.0455
<dSpData1D:S at geom step 5
  <sparsity:sparsity for geom step 5
    nrows_g=296 nrows=17 sparsity=.2281 nnzs=19987, refcount: 9>
  <dData1D:(new from dSpData1D) n=19987, refcount: 1>
refcount: 1>
new_DM -- step:     6
Re-using DM from previous geometries...
Number of DMs in history: 1
 DM extrapolation coefficients: 
1   1.00000
New DM after history re-use:
<dSpData2D:SpM extrapolated using coords
  <sparsity:sparsity for geom step 5
    nrows_g=296 nrows=17 sparsity=.2281 nnzs=19987, refcount: 11>
  <dData2D:(temp array for extrapolation) n=19987 m=8, refcount: 1>
refcount: 1>

InitMesh: MESH = 48 x 60 x 64 = 184320
InitMesh: Mesh cutoff (required, used) =   150.000   155.997 Ry
New grid distribution [1]: sub = 2
New grid distribution [2]: sub = 2
New grid distribution [3]: sub = 2
Setting up quadratic distribution...

        iscf     Eharris(eV)        E_KS(eV)     FreeEng(eV)     dDmax    Ef(eV) dHmax(eV)
   scf:    1   -43221.149666   -43221.174009   -43221.190203  0.007185 -4.244159  0.078380
     spin moment: {S} , |S| = {   -0.00008    9.50829    0.00000 }     9.50829
   scf:    2   -43220.982319   -43221.110168   -43221.126474  0.011504 -4.205702  0.646599
     spin moment: {S} , |S| = {   -0.00009    9.48738    0.00000 }     9.48738
   scf:    3   -43221.174122   -43221.175601   -43221.191808  0.009883 -4.239345  0.011282
     spin moment: {S} , |S| = {   -0.00008    9.50683    0.00000 }     9.50683
   scf:    4   -43221.175802   -43221.175678   -43221.191884  0.000283 -4.239541  0.008443
     spin moment: {S} , |S| = {   -0.00008    9.50712    0.00000 }     9.50712
   scf:    5   -43221.175979   -43221.175802   -43221.192003  0.000680 -4.240196  0.005312
     spin moment: {S} , |S| = {   -0.00008    9.50758    0.00000 }     9.50758
   scf:    6   -43221.175831   -43221.175816   -43221.192015  0.000059 -4.240268  0.004950
     spin moment: {S} , |S| = {   -0.00008    9.50761    0.00000 }     9.50761

SCF Convergence by DM+H criterion
max |DM_out - DM_in|         :     0.0000593422
max |H_out - H_in|      (eV) :     0.0049498737
SCF cycle converged after 6 iterations

Using DM_out to compute the final energy and forces

siesta: E_KS(eV) =           -43221.1758

siesta: Atomic forces (eV/Ang):
----------------------------------------
   Tot   -0.000001    0.000001    0.000001
----------------------------------------
   Max    0.141065
   Res    0.059463    sqrt( Sum f_i^2 / 3N )
----------------------------------------
   Max    0.141065    constrained

Stress tensor Voigt[x,y,z,yz,xz,xy] (kbar):       -3.93       -0.39        1.09       -0.00       -0.00        0.00
(Free)E + p*V (eV/cell)   -43220.9162
Target enthalpy (eV/cell)   -43221.1920

siesta: Stress tensor (static) (eV/Ang**3):
        -0.002454    0.000000   -0.000000
         0.000000   -0.000246   -0.000000
        -0.000000   -0.000000    0.000682

siesta: Pressure (static):          1.07771810  kBar

siesta: Stress tensor (total) (eV/Ang**3):
        -0.002454    0.000000   -0.000000
         0.000000   -0.000246   -0.000000
        -0.000000   -0.000000    0.000682

siesta: Pressure (total):          1.07771810  kBar

cgvc: Finished line minimization    2.  Mean atomic displacement =    0.0499

                     ====================================
                        Begin CG opt. move =      6
                     ====================================
k-point displ. along   1 input, could be:     0.00    0.50
k-point displ. along   2 input, could be:     0.00    0.50
k-point displ. along   3 input, could be:     0.00    0.50

Time-reversal symmetry not used.

siesta: k-grid: Number of k-points = 1000
siesta: k-points from Monkhorst-Pack grid
siesta: k-cutoff (effective) =    32.179 Ang
siesta: k-point supercell and displacements
siesta: k-grid:    10     0     0      0.000
siesta: k-grid:     0    10     0      0.000
siesta: k-grid:     0     0    10      0.000

superc: Internal auxiliary supercell:     5 x     3 x     5  =      75
superc: Number of atoms, orbitals, and projectors:   1200  22200  40800

outcell: Unit cell vectors (Ang):
        6.435841   -0.000004   -0.000000
       -0.000005    7.791626    0.000001
       -0.000000    0.000001    8.239993

outcell: Cell vector modules (Ang)   :    6.435841    7.791626    8.239993
outcell: Cell angles (23,13,12) (deg):     90.0000     90.0000     90.0001
outcell: Cell volume (Ang**3)        :    413.1999
<dSpData1D:S at geom step 6
  <sparsity:sparsity for geom step 6
    nrows_g=296 nrows=17 sparsity=.2276 nnzs=19939, refcount: 9>
  <dData1D:(new from dSpData1D) n=19939, refcount: 1>
refcount: 1>
new_DM -- step:     7
Re-using DM from previous geometries...
Number of DMs in history: 1
 DM extrapolation coefficients: 
1   1.00000
New DM after history re-use:
<dSpData2D:SpM extrapolated using coords
  <sparsity:sparsity for geom step 6
    nrows_g=296 nrows=17 sparsity=.2276 nnzs=19939, refcount: 11>
  <dData2D:(temp array for extrapolation) n=19939 m=8, refcount: 1>
refcount: 1>

InitMesh: MESH = 48 x 60 x 64 = 184320
InitMesh: Mesh cutoff (required, used) =   150.000   153.735 Ry
New grid distribution [1]: sub = 2
New grid distribution [2]: sub = 2
New grid distribution [3]: sub = 2
Setting up quadratic distribution...

        iscf     Eharris(eV)        E_KS(eV)     FreeEng(eV)     dDmax    Ef(eV) dHmax(eV)
   scf:    1   -43221.332383   -43221.148485   -43221.165338  0.043937 -4.202047  0.467171
     spin moment: {S} , |S| = {   -0.00007    9.45286    0.00000 }     9.45286
   scf:    2   -43215.185442   -43219.276127   -43219.292859  0.054208 -4.399588  3.548481
     spin moment: {S} , |S| = {   -0.00014    9.58663    0.00000 }     9.58663
   scf:    3   -43221.437167   -43221.185690   -43221.202527  0.048001 -4.227832  0.029296
     spin moment: {S} , |S| = {   -0.00008    9.46465    0.00000 }     9.46465
   scf:    4   -43221.186863   -43221.186511   -43221.203366  0.000728 -4.229291  0.023394
     spin moment: {S} , |S| = {   -0.00008    9.46233    0.00000 }     9.46233
   scf:    5   -43221.188825   -43221.187716   -43221.204637  0.001852 -4.229144  0.020115
     spin moment: {S} , |S| = {   -0.00008    9.45519    0.00000 }     9.45519
   scf:    6   -43221.187910   -43221.187848   -43221.204783  0.000298 -4.229359  0.019261
     spin moment: {S} , |S| = {   -0.00008    9.45393    0.00000 }     9.45393
   scf:    7   -43221.189056   -43221.188399   -43221.205431  0.001841 -4.229434  0.013594
     spin moment: {S} , |S| = {   -0.00008    9.44535    0.00000 }     9.44535
   scf:    8   -43221.188933   -43221.188507   -43221.205570  0.000732 -4.228174  0.013138
     spin moment: {S} , |S| = {   -0.00008    9.44241    0.00000 }     9.44241
   scf:    9   -43221.189386   -43221.188829   -43221.205975  0.002099 -4.228132  0.009387
     spin moment: {S} , |S| = {   -0.00008    9.43661    0.00000 }     9.43661
   scf:   10   -43221.188895   -43221.188891   -43221.206071  0.000912 -4.228405  0.007715
     spin moment: {S} , |S| = {   -0.00008    9.43481    0.00000 }     9.43481
   scf:   11   -43221.189105   -43221.188928   -43221.206151  0.001463 -4.227949  0.005467
     spin moment: {S} , |S| = {   -0.00008    9.43331    0.00000 }     9.43331
   scf:   12   -43221.189009   -43221.188930   -43221.206162  0.000363 -4.227586  0.005092
     spin moment: {S} , |S| = {   -0.00008    9.43326    0.00000 }     9.43326
   scf:   13   -43221.188911   -43221.188906   -43221.206156  0.000993 -4.227494  0.003621
     spin moment: {S} , |S| = {   -0.00008    9.43439    0.00000 }     9.43439
   scf:   14   -43221.188805   -43221.188823   -43221.206090  0.000928 -4.227406  0.002247
     spin moment: {S} , |S| = {   -0.00008    9.43583    0.00000 }     9.43583
   scf:   15   -43221.188778   -43221.188794   -43221.206063  0.000256 -4.227418  0.002076
     spin moment: {S} , |S| = {   -0.00008    9.43685    0.00000 }     9.43685

SCF Convergence by DM+H criterion
max |DM_out - DM_in|         :     0.0002556333
max |H_out - H_in|      (eV) :     0.0020756768
SCF cycle converged after 15 iterations

Using DM_out to compute the final energy and forces

siesta: E_KS(eV) =           -43221.1888

siesta: Atomic forces (eV/Ang):
----------------------------------------
   Tot   -0.000003   -0.000004   -0.000001
----------------------------------------
   Max    0.071449
   Res    0.036867    sqrt( Sum f_i^2 / 3N )
----------------------------------------
   Max    0.071449    constrained

Stress tensor Voigt[x,y,z,yz,xz,xy] (kbar):        3.34        0.73        1.04       -0.00        0.00       -0.00
(Free)E + p*V (eV/cell)   -43221.6451
Target enthalpy (eV/cell)   -43221.2061

siesta: Stress tensor (static) (eV/Ang**3):
         0.002086   -0.000000    0.000000
        -0.000000    0.000453   -0.000000
         0.000000   -0.000000    0.000649

siesta: Pressure (static):         -1.70221227  kBar

siesta: Stress tensor (total) (eV/Ang**3):
         0.002086   -0.000000    0.000000
        -0.000000    0.000453   -0.000000
         0.000000   -0.000000    0.000649

siesta: Pressure (total):         -1.70221227  kBar

                     ====================================
                        Begin CG opt. move =      7
                     ====================================
k-point displ. along   1 input, could be:     0.00    0.50
k-point displ. along   2 input, could be:     0.00    0.50
k-point displ. along   3 input, could be:     0.00    0.50

Time-reversal symmetry not used.

siesta: k-grid: Number of k-points = 1000
siesta: k-points from Monkhorst-Pack grid
[...]
    3 11 4dyz       0.79914   0.21815      0.001  -0.218   0.000
    3 12 4dz2       1.18738   0.14057     -0.002  -0.141  -0.000
    3 13 4dxz       0.94996   0.24312     -0.000  -0.243   0.000
    3 14 4dx2-y2    1.00387   0.14155      0.003  -0.142   0.000
    3 15 4dxy      -0.01382   0.00333      0.001   0.003  -0.000
    3 16 4dyz      -0.07069   0.04453      0.000   0.045  -0.000
    3 17 4dz2      -0.18152   0.04514      0.001   0.045   0.000
    3 18 4dxz      -0.20484   0.08365     -0.000   0.084  -0.000
    3 19 4dx2-y2   -0.09230   0.03772     -0.001   0.038   0.000
    3     Total    13.22774   0.71521      0.002  -0.715   0.000

    4  1 4s         1.93165   0.00229     -0.000  -0.002   0.000
    4  2 5s        -0.02563   0.04140      0.000  -0.041   0.000
    4  3 5s         0.47814   0.00422      0.000  -0.004   0.000
    4  4 4py        1.94837   0.00200     -0.000  -0.002   0.000
    4  5 4pz        1.93999   0.00437      0.000  -0.004   0.000
    4  6 4px        1.94456   0.00276      0.000  -0.003   0.000
    4  7 5py        0.29017   0.02100     -0.000  -0.021   0.000
    4  8 5pz        0.30793   0.03577      0.000  -0.036   0.000
    4  9 5px        0.25661   0.01994      0.000  -0.020   0.000
    4 10 4dxy       0.77878   0.05235      0.000  -0.052   0.000
    4 11 4dyz       0.79913   0.21815     -0.001  -0.218   0.000
    4 12 4dz2       1.18737   0.14057      0.002  -0.141  -0.000
    4 13 4dxz       0.94995   0.24312      0.000  -0.243   0.000
    4 14 4dx2-y2    1.00386   0.14155     -0.003  -0.142   0.000
    4 15 4dxy      -0.01382   0.00333     -0.001   0.003  -0.000
    4 16 4dyz      -0.07068   0.04453     -0.000   0.045  -0.000
    4 17 4dz2      -0.18152   0.04514     -0.001   0.045   0.000
    4 18 4dxz      -0.20483   0.08365      0.000   0.084  -0.000
    4 19 4dx2-y2   -0.09229   0.03772      0.001   0.038  -0.000
    4     Total    13.22772   0.71521     -0.002  -0.715   0.000

----------------------------------------------------------------
Total              52.91092   2.86084      0.000  -2.861   0.000


Species: Fe                  

Atom      Orb        Charge      Spin       Svec
----------------------------------------------------------------
    5  1 3s         1.93612   0.01443      0.000   0.014  -0.000
    5  2 4s        -0.48874   0.00766     -0.000   0.008   0.000
    5  3 4s         0.39979   0.02175     -0.000   0.022  -0.000
    5  4 3py        2.00475   0.00125     -0.000  -0.001   0.000
    5  5 3pz        2.00439   0.00177     -0.000  -0.002  -0.000
    5  6 3px        2.00332   0.00136     -0.000  -0.001   0.000
    5  7 4py        0.33505   0.03452     -0.000   0.035  -0.000
    5  8 4pz        0.32335   0.02787     -0.000   0.028  -0.000
    5  9 4px        0.30945   0.03747      0.000   0.037   0.000
    5 10 3dxy       1.49681   0.41224      0.016   0.412  -0.000
    5 11 3dyz       1.18569   0.72968      0.001   0.730   0.000
    5 12 3dz2       1.71942   0.23478     -0.000   0.235  -0.000
    5 13 3dxz       1.22078   0.68013      0.005   0.680  -0.000
    5 14 3dx2-y2    1.31407   0.59037     -0.012   0.590  -0.000
    5 15 3dxy      -0.09333   0.07663     -0.001   0.077  -0.000
    5 16 3dyz      -0.05342   0.05061      0.001   0.051  -0.000
    5 17 3dz2      -0.16608   0.09049      0.000   0.090  -0.000
    5 18 3dxz      -0.04324   0.06110     -0.000   0.061  -0.000
    5 19 3dx2-y2   -0.06205   0.06129      0.001   0.061   0.000
    5     Total    15.34612   3.12616      0.011   3.126  -0.000

    6  1 3s         1.93612   0.01443     -0.000   0.014   0.000
    6  2 4s        -0.48873   0.00766      0.000   0.008   0.000
    6  3 4s         0.39978   0.02175      0.000   0.022  -0.000
    6  4 3py        2.00475   0.00125      0.000  -0.001   0.000
    6  5 3pz        2.00439   0.00177      0.000  -0.002  -0.000
    6  6 3px        2.00332   0.00136      0.000  -0.001   0.000
    6  7 4py        0.33505   0.03452      0.000   0.035   0.000
    6  8 4pz        0.32335   0.02787      0.000   0.028  -0.000
    6  9 4px        0.30945   0.03747     -0.000   0.037   0.000
    6 10 3dxy       1.49681   0.41224     -0.016   0.412  -0.000
    6 11 3dyz       1.18568   0.72969     -0.001   0.730   0.000
    6 12 3dz2       1.71941   0.23478      0.000   0.235  -0.000
    6 13 3dxz       1.22078   0.68013     -0.005   0.680  -0.000
    6 14 3dx2-y2    1.31407   0.59036      0.012   0.590  -0.000
    6 15 3dxy      -0.09333   0.07663      0.001   0.077  -0.000
    6 16 3dyz      -0.05342   0.05061     -0.001   0.051  -0.000
    6 17 3dz2      -0.16607   0.09049     -0.000   0.090   0.000
    6 18 3dxz      -0.04324   0.06110      0.000   0.061  -0.000
    6 19 3dx2-y2   -0.06204   0.06129     -0.001   0.061   0.000
    6     Total    15.34613   3.12616     -0.011   3.126   0.000

    7  1 3s         1.93612   0.01443      0.000   0.014  -0.000
    7  2 4s        -0.48874   0.00766     -0.000   0.008  -0.000
    7  3 4s         0.39979   0.02175     -0.000   0.022   0.000
    7  4 3py        2.00475   0.00125     -0.000  -0.001   0.000
    7  5 3pz        2.00439   0.00177     -0.000  -0.002   0.000
    7  6 3px        2.00332   0.00136     -0.000  -0.001   0.000
    7  7 4py        0.33505   0.03452     -0.000   0.035   0.000
    7  8 4pz        0.32335   0.02787     -0.000   0.028  -0.000
    7  9 4px        0.30945   0.03747      0.000   0.037   0.000
    7 10 3dxy       1.49681   0.41224      0.016   0.412  -0.000
    7 11 3dyz       1.18569   0.72968      0.001   0.730  -0.000
    7 12 3dz2       1.71941   0.23478     -0.000   0.235  -0.000
    7 13 3dxz       1.22078   0.68013      0.005   0.680   0.000
    7 14 3dx2-y2    1.31407   0.59036     -0.012   0.590   0.000
    7 15 3dxy      -0.09333   0.07663     -0.001   0.077  -0.000
    7 16 3dyz      -0.05343   0.05061      0.001   0.051  -0.000
    7 17 3dz2      -0.16607   0.09049      0.000   0.090   0.000
    7 18 3dxz      -0.04324   0.06110     -0.000   0.061  -0.000
    7 19 3dx2-y2   -0.06205   0.06129      0.001   0.061  -0.000
    7     Total    15.34613   3.12616      0.011   3.126  -0.000

    8  1 3s         1.93612   0.01443     -0.000   0.014  -0.000
    8  2 4s        -0.48873   0.00766      0.000   0.008  -0.000
    8  3 4s         0.39978   0.02175      0.000   0.022   0.000
    8  4 3py        2.00475   0.00125      0.000  -0.001   0.000
    8  5 3pz        2.00439   0.00177      0.000  -0.002   0.000
    8  6 3px        2.00332   0.00136      0.000  -0.001  -0.000
    8  7 4py        0.33505   0.03452      0.000   0.035  -0.000
    8  8 4pz        0.32335   0.02787      0.000   0.028  -0.000
    8  9 4px        0.30945   0.03747     -0.000   0.037   0.000
    8 10 3dxy       1.49681   0.41224     -0.016   0.412  -0.000
    8 11 3dyz       1.18568   0.72969     -0.001   0.730  -0.000
    8 12 3dz2       1.71941   0.23478      0.000   0.235  -0.000
    8 13 3dxz       1.22077   0.68013     -0.005   0.680   0.000
    8 14 3dx2-y2    1.31407   0.59037      0.012   0.590   0.000
    8 15 3dxy      -0.09333   0.07663      0.001   0.077  -0.000
    8 16 3dyz      -0.05342   0.05061     -0.001   0.051  -0.000
    8 17 3dz2      -0.16607   0.09049     -0.000   0.090   0.000
    8 18 3dxz      -0.04324   0.06110      0.000   0.061  -0.000
    8 19 3dx2-y2   -0.06204   0.06129     -0.001   0.061  -0.000
    8     Total    15.34613   3.12616     -0.011   3.126  -0.000

----------------------------------------------------------------
Total             114.29544   9.64374     -0.000   9.644   0.000


Species: Te                  

Atom      Orb        Charge      Spin       Svec
----------------------------------------------------------------
    9  1 5s         1.72873   0.00098      0.000  -0.001  -0.000
    9  2 5s         0.08194   0.00237     -0.000   0.002  -0.000
    9  3 5py        1.23164   0.00764      0.000  -0.008  -0.000
    9  4 5pz        1.34637   0.10574      0.000  -0.106   0.000
    9  5 5px        1.32416   0.01171     -0.000   0.012  -0.000
    9  6 5py        0.12417   0.00164     -0.000   0.002  -0.000
    9  7 5pz        0.02854   0.03041     -0.000   0.030  -0.000
    9  8 5px        0.03543   0.01121     -0.000   0.011   0.000
    9  9 4dxy       2.00108   0.00000      0.000  -0.000   0.000
    9 10 4dyz       2.00071   0.00003      0.000  -0.000   0.000
    9 11 4dz2       2.00067   0.00001     -0.000   0.000   0.000
    9 12 4dxz       2.00105   0.00001      0.000  -0.000   0.000
    9 13 4dx2-y2    2.00227   0.00003      0.000  -0.000   0.000
    9 14 5dxy       0.05746   0.00316      0.000  -0.003   0.000
    9 15 5dyz       0.08020   0.00253      0.000  -0.003  -0.000
    9 16 5dz2       0.06627   0.00362      0.000  -0.004   0.000
    9 17 5dxz       0.05136   0.00103     -0.000   0.001  -0.000
    9 18 5dx2-y2    0.06380   0.00388      0.000  -0.004  -0.000
    9     Total    16.22584   0.06924      0.000  -0.069   0.000

   10  1 5s         1.70290   0.00144     -0.000   0.001  -0.000
   10  2 5s         0.09552   0.00110     -0.000   0.001  -0.000
   10  3 5py        1.28009   0.03007     -0.003  -0.030   0.000
   10  4 5pz        1.25204   0.05315     -0.002   0.053  -0.000
   10  5 5px        1.30806   0.03372      0.001  -0.034   0.000
   10  6 5py        0.07078   0.01812      0.001   0.018  -0.000
   10  7 5pz        0.07157   0.00300      0.000  -0.003  -0.000
   10  8 5px       -0.01917   0.02244     -0.001   0.022   0.000
   10  9 4dxy       2.00103   0.00001     -0.000   0.000   0.000
   10 10 4dyz       2.00130   0.00000     -0.000   0.000  -0.000
   10 11 4dz2       2.00081   0.00007     -0.000   0.000   0.000
   10 12 4dxz       2.00144   0.00007      0.000  -0.000   0.000
   10 13 4dx2-y2    2.00195   0.00002      0.000  -0.000   0.000
   10 14 5dxy       0.08268   0.00301      0.000  -0.003  -0.000
   10 15 5dyz       0.08233   0.00600      0.000  -0.006   0.000
   10 16 5dz2       0.06803   0.00675     -0.000   0.007   0.000
   10 17 5dxz       0.08763   0.01129      0.000  -0.011   0.000
   10 18 5dx2-y2    0.11131   0.00192      0.000  -0.002   0.000
   10     Total    16.20030   0.01452     -0.003   0.014   0.000

   11  1 5s         1.70290   0.00144     -0.000   0.001   0.000
   11  2 5s         0.09552   0.00110     -0.000   0.001  -0.000
   11  3 5py        1.28009   0.03007     -0.003  -0.030  -0.000
   11  4 5pz        1.25204   0.05315     -0.002   0.053   0.000
   11  5 5px        1.30806   0.03372      0.001  -0.034  -0.000
   11  6 5py        0.07078   0.01812      0.001   0.018   0.000
   11  7 5pz        0.07157   0.00300      0.000  -0.003  -0.000
   11  8 5px       -0.01917   0.02244     -0.001   0.022  -0.000
   11  9 4dxy       2.00103   0.00001     -0.000   0.000  -0.000
   11 10 4dyz       2.00130   0.00000     -0.000   0.000  -0.000
   11 11 4dz2       2.00081   0.00007     -0.000   0.000   0.000
   11 12 4dxz       2.00144   0.00007      0.000  -0.000  -0.000
   11 13 4dx2-y2    2.00195   0.00002      0.000  -0.000   0.000
   11 14 5dxy       0.08268   0.00301      0.000  -0.003   0.000
   11 15 5dyz       0.08233   0.00600      0.000  -0.006  -0.000
   11 16 5dz2       0.06803   0.00675     -0.000   0.007  -0.000
   11 17 5dxz       0.08763   0.01129      0.000  -0.011  -0.000
   11 18 5dx2-y2    0.11131   0.00192      0.000  -0.002   0.000
   11     Total    16.20030   0.01452     -0.003   0.014  -0.000

   12  1 5s         1.72872   0.00098      0.000  -0.001  -0.000
   12  2 5s         0.08195   0.00237     -0.000   0.002  -0.000
   12  3 5py        1.23164   0.00764      0.000  -0.008  -0.000
   12  4 5pz        1.34637   0.10574      0.000  -0.106   0.000
   12  5 5px        1.32416   0.01171     -0.000   0.012  -0.000
   12  6 5py        0.12417   0.00164     -0.000   0.002   0.000
   12  7 5pz        0.02854   0.03041     -0.000   0.030   0.000
   12  8 5px        0.03543   0.01121     -0.000   0.011  -0.000
   12  9 4dxy       2.00108   0.00000      0.000  -0.000  -0.000
   12 10 4dyz       2.00071   0.00003      0.000  -0.000   0.000
   12 11 4dz2       2.00067   0.00001     -0.000   0.000   0.000
   12 12 4dxz       2.00105   0.00001      0.000  -0.000  -0.000
   12 13 4dx2-y2    2.00227   0.00003      0.000  -0.000   0.000
   12 14 5dxy       0.05746   0.00316      0.000  -0.003   0.000
   12 15 5dyz       0.08020   0.00253      0.000  -0.003   0.000
   12 16 5dz2       0.06627   0.00362      0.000  -0.004   0.000
   12 17 5dxz       0.05136   0.00103     -0.000   0.001   0.000
   12 18 5dx2-y2    0.06380   0.00388      0.000  -0.004  -0.000
   12     Total    16.22584   0.06924      0.000  -0.069  -0.000

   13  1 5s         1.70290   0.00144      0.000   0.001  -0.000
   13  2 5s         0.09552   0.00110      0.000   0.001  -0.000
   13  3 5py        1.28009   0.03007      0.003  -0.030   0.000
   13  4 5pz        1.25204   0.05315      0.002   0.053  -0.000
   13  5 5px        1.30806   0.03372     -0.001  -0.034   0.000
   13  6 5py        0.07078   0.01812     -0.001   0.018  -0.000
   13  7 5pz        0.07157   0.00300     -0.000  -0.003  -0.000
   13  8 5px       -0.01917   0.02244      0.001   0.022  -0.000
   13  9 4dxy       2.00103   0.00001      0.000   0.000   0.000
   13 10 4dyz       2.00130   0.00000      0.000   0.000  -0.000
   13 11 4dz2       2.00081   0.00007      0.000   0.000   0.000
   13 12 4dxz       2.00144   0.00007     -0.000  -0.000   0.000
   13 13 4dx2-y2    2.00195   0.00002     -0.000  -0.000   0.000
   13 14 5dxy       0.08268   0.00301     -0.000  -0.003  -0.000
   13 15 5dyz       0.08233   0.00600     -0.000  -0.006   0.000
   13 16 5dz2       0.06803   0.00675      0.000   0.007   0.000
   13 17 5dxz       0.08763   0.01129     -0.000  -0.011   0.000
   13 18 5dx2-y2    0.11131   0.00192     -0.000  -0.002   0.000
   13     Total    16.20030   0.01452      0.003   0.014   0.000

   14  1 5s         1.70290   0.00144      0.000   0.001   0.000
   14  2 5s         0.09552   0.00110      0.000   0.001   0.000
   14  3 5py        1.28009   0.03007      0.003  -0.030  -0.000
   14  4 5pz        1.25204   0.05315      0.002   0.053   0.000
   14  5 5px        1.30806   0.03372     -0.001  -0.034  -0.000
   14  6 5py        0.07078   0.01812     -0.001   0.018   0.000
   14  7 5pz        0.07157   0.00300     -0.000  -0.003  -0.000
   14  8 5px       -0.01917   0.02244      0.001   0.022  -0.000
   14  9 4dxy       2.00103   0.00001      0.000   0.000  -0.000
   14 10 4dyz       2.00130   0.00000      0.000   0.000   0.000
   14 11 4dz2       2.00081   0.00007      0.000   0.000   0.000
   14 12 4dxz       2.00144   0.00007     -0.000  -0.000  -0.000
   14 13 4dx2-y2    2.00195   0.00002     -0.000  -0.000   0.000
   14 14 5dxy       0.08268   0.00301     -0.000  -0.003   0.000
   14 15 5dyz       0.08233   0.00600     -0.000  -0.006  -0.000
   14 16 5dz2       0.06803   0.00675      0.000   0.007  -0.000
   14 17 5dxz       0.08763   0.01129     -0.000  -0.011  -0.000
   14 18 5dx2-y2    0.11131   0.00192     -0.000  -0.002   0.000
   14     Total    16.20030   0.01452      0.003   0.014  -0.000

   15  1 5s         1.72873   0.00098      0.000  -0.001  -0.000
   15  2 5s         0.08194   0.00237     -0.000   0.002  -0.000
   15  3 5py        1.23164   0.00764      0.000  -0.008  -0.000
   15  4 5pz        1.34637   0.10575      0.000  -0.106   0.000
   15  5 5px        1.32416   0.01171     -0.000   0.012  -0.000
   15  6 5py        0.12417   0.00164     -0.000   0.002  -0.000
   15  7 5pz        0.02854   0.03041     -0.000   0.030  -0.000
   15  8 5px        0.03543   0.01121     -0.000   0.011   0.000
   15  9 4dxy       2.00108   0.00000      0.000  -0.000   0.000
   15 10 4dyz       2.00071   0.00003      0.000  -0.000   0.000
   15 11 4dz2       2.00067   0.00001     -0.000   0.000   0.000
   15 12 4dxz       2.00105   0.00001      0.000  -0.000   0.000
   15 13 4dx2-y2    2.00227   0.00003      0.000  -0.000   0.000
   15 14 5dxy       0.05746   0.00316      0.000  -0.003   0.000
   15 15 5dyz       0.08020   0.00253      0.000  -0.003  -0.000
   15 16 5dz2       0.06627   0.00362      0.000  -0.004   0.000
   15 17 5dxz       0.05136   0.00103     -0.000   0.001  -0.000
   15 18 5dx2-y2    0.06380   0.00388      0.000  -0.004  -0.000
   15     Total    16.22584   0.06924      0.000  -0.069   0.000

   16  1 5s         1.72873   0.00098      0.000  -0.001  -0.000
   16  2 5s         0.08194   0.00237     -0.000   0.002  -0.000
   16  3 5py        1.23164   0.00764      0.000  -0.008   0.000
   16  4 5pz        1.34637   0.10575      0.000  -0.106  -0.000
   16  5 5px        1.32416   0.01171     -0.000   0.012  -0.000
   16  6 5py        0.12417   0.00164     -0.000   0.002  -0.000
   16  7 5pz        0.02854   0.03041     -0.000   0.030   0.000
   16  8 5px        0.03543   0.01121     -0.000   0.011  -0.000
   16  9 4dxy       2.00108   0.00000      0.000  -0.000  -0.000
   16 10 4dyz       2.00071   0.00003      0.000  -0.000   0.000
   16 11 4dz2       2.00067   0.00001     -0.000   0.000   0.000
   16 12 4dxz       2.00105   0.00001      0.000  -0.000  -0.000
   16 13 4dx2-y2    2.00227   0.00003      0.000  -0.000   0.000
   16 14 5dxy       0.05746   0.00316      0.000  -0.003   0.000
   16 15 5dyz       0.08020   0.00253      0.000  -0.003   0.000
   16 16 5dz2       0.06627   0.00362      0.000  -0.004   0.000
   16 17 5dxz       0.05136   0.00103     -0.000   0.001   0.000
   16 18 5dx2-y2    0.06380   0.00388      0.000  -0.004  -0.000
   16     Total    16.22584   0.06924      0.000  -0.069  -0.000

----------------------------------------------------------------
Total             244.00000   9.42331     -0.000   9.423   0.000


Mulliken Atomic Populations:
Atom #   charge [q] valence [e]           S      Sx [e]      Sy [e]      Sz [e]  Species
     1    -0.227732   13.227732    0.715207   -0.001655   -0.715205    0.000001  Nb
     2    -0.227728   13.227728    0.715214    0.001669   -0.715212    0.000001  Nb
     3    -0.227738   13.227738    0.715208    0.001668   -0.715206    0.000001  Nb
     4    -0.227723   13.227723    0.715214   -0.001656   -0.715212    0.000001  Nb
     5     0.653875   15.346125    3.126161    0.010658    3.126143   -0.000000  Fe
     6     0.653867   15.346133    3.126163   -0.010712    3.126145    0.000000  Fe
     7     0.653875   15.346125    3.126162    0.010659    3.126144   -0.000000  Fe
     8     0.653866   15.346134    3.126163   -0.010711    3.126144   -0.000000  Fe
     9    -0.225842   16.225842    0.069236    0.000001   -0.069236    0.000000  Te
    10    -0.200300   16.200300    0.014522   -0.003353    0.014130    0.000000  Te
    11    -0.200301   16.200301    0.014522   -0.003353    0.014130   -0.000000  Te
    12    -0.225842   16.225842    0.069236    0.000001   -0.069236   -0.000000  Te
    13    -0.200298   16.200298    0.014521    0.003352    0.014129    0.000000  Te
    14    -0.200298   16.200298    0.014522    0.003352    0.014130   -0.000000  Te
    15    -0.225841   16.225841    0.069238    0.000001   -0.069238    0.000000  Te
    16    -0.225841   16.225841    0.069238    0.000001   -0.069238   -0.000000  Te
-------------------------------------------------------------------------------
 Total    -0.000000                9.423312   -0.000081    9.423312    0.000002

cite: Please see "NbFeTe2.bib" for an exhaustive BiBTeX file.
cite: Please clearly indicate Siesta version in published work: 5.2.0 (Spack) Tag: 5.2.0
cite: This calculation has made use of the following articles
cite: which are encouraged to be cited in a published work.
        Primary SIESTA paper
          DOI: www.doi.org/10.1088/0953-8984/14/11/302
        LDA+U implementation
          DOI: www.doi.org/10.1103/PhysRevB.57.1505
        Spin-orbit coupling (off-site approximation)
          DOI: www.doi.org/10.1088/0953-8984/24/8/086005


>> End of run:  19-JUN-2025  23:32:37
Job completed
