<preamble>

<basis_specs>
===============================================================================
Te                   Z=  52    Mass=  127.60        Charge= 0.17977+309
Lmxo=2 Lmxkb= 2    BasisType=split      Semic=T
L=0  Nsemic=0  Cnfigmx=5
          i=1  nzeta=2  polorb=0  (5s)
            splnorm:   0.15000    
               vcte:    40.000    
               rinn:    4.9762    
               qcoe:    0.0000    
               qyuk:    0.0000    
               qwid:   0.10000E-01
                rcs:    5.5236      3.7216    
            lambdas:    1.0000      1.0000    
L=1  Nsemic=0  Cnfigmx=5
          i=1  nzeta=2  polorb=0  (5p)  (to be polarized non-perturbatively)
            splnorm:   0.15000    
               vcte:    40.000    
               rinn:    6.4306    
               qcoe:    0.0000    
               qyuk:    0.0000    
               qwid:   0.10000E-01
                rcs:    7.1380      4.8831    
            lambdas:    1.0000      1.0000    
L=2  Nsemic=1  Cnfigmx=5
          i=1  nzeta=1  polorb=0  (4d)  (semicore shell)
            splnorm:   0.15000    
               vcte:    40.000    
               rinn:    2.8845    
               qcoe:    0.0000    
               qyuk:    0.0000    
               qwid:   0.10000E-01
                rcs:    3.2018    
            lambdas:    1.0000    
          i=2  nzeta=1  polorb=0  (5d)  (non-perturbative polarization shell)
            splnorm:   0.15000    
               vcte:    40.000    
               rinn:    6.4306    
               qcoe:   0.11198-314
               qyuk:   0.49407-323
               qwid:   0.11582-309
                rcs:    7.1380    
            lambdas:    1.0000    
-------------------------------------------------------------------------------
L=0  Nkbl=1  erefs: 0.17977+309
L=1  Nkbl=1  erefs: 0.17977+309
L=2  Nkbl=2  erefs: 0.17977+309 0.17977+309
===============================================================================
</basis_specs>

<pseudopotential_header>
 Te pb rel pcec
 ONCVPSP-3.2018-04-23Hamann's oncvpsp                        
 5s 2.00r r= 2.27/5p 4.00r r= 1.92/4d10.00r r= 1.81/                    4d:5s:5p:
</pseudopotential_header>
</preamble>
Te                            # Symbol
Te                            # Label
   52                         # Atomic number
     16.0000000000                             # Valence charge
     127.600000000        # Mass 
     228.670698731        # Self energy 
   2   6                      # Lmax for basis, no. of nl orbitals 
   2  10 T                    # Lmax for projectors, no. of nl KB projectors, LJ projs?
# PAOs:__________________________
  0  5  1  0  2.000000   #orbital l, n, z, is_polarized, population
 500    0.1106924126543780E-01     5.523551391453463     # npts, delta, cutoff
     0.000000000000000        0.2315685261532858E-01
    0.1106924126543780E-01    0.2322691988482807E-01
    0.2213848253087560E-01    0.2343894014878201E-01
    0.3320772379631340E-01    0.2379220237842391E-01
    0.4427696506175120E-01    0.2428654828955210E-01
    0.5534620632718901E-01    0.2492175590138065E-01
    0.6641544759262680E-01    0.2569753889947138E-01
    0.7748468885806460E-01    0.2661354593168291E-01
    0.8855393012350241E-01    0.2766935977384974E-01
    0.9962317138894021E-01    0.2886449636521018E-01
    0.1106924126543780        0.3019840372105221E-01
    0.1217616539198158        0.3167046073236067E-01
    0.1328308951852536        0.3327997586365728E-01
    0.1439001364506914        0.3502618576135327E-01
    0.1549693777161292        0.3690825378593977E-01
    0.1660386189815670        0.3892526848223304E-01
    0.1771078602470048        0.4107624200269620E-01
    0.1881771015124426        0.4336010849955964E-01
    0.1992463427778804        0.4577572250205439E-01
    0.2103155840433182        0.4832185729556648E-01
    0.2213848253087560        0.5099720331989605E-01
    0.2324540665741938        0.5380036660406706E-01
    0.2435233078396316        0.5672986725528508E-01
    0.2545925491050694        0.5978413801966400E-01
    0.2656617903705072        0.6296152293225217E-01
    0.2767310316359450        0.6626027607368297E-01
    0.2878002729013828        0.6967856045044474E-01
    0.2988695141668206        0.7321444701532738E-01
    0.3099387554322584        0.7686591384404387E-01
    0.3210079966976962        0.8063084548336492E-01
    0.3320772379631340        0.8450703248533410E-01
    0.3431464792285718        0.8849217114126015E-01
    0.3542157204940096        0.9258386342822031E-01
    0.3652849617594474        0.9677961717975095E-01
    0.3763542030248852        0.1010768464912679    
    0.3874234442903230        0.1054728723695446    
    0.3984926855557608        0.1099649236342955    
    0.4095619268211986        0.1145501380785709    
    0.4206311680866364        0.1192255638932795    
    0.4317004093520742        0.1239881613597126    
    0.4427696506175121        0.1288348048124850    
    0.4538388918829498        0.1337622848737956    
    0.4649081331483876        0.1387673109584190    
    0.4759773744138254        0.1438465140473055    
    0.4870466156792632        0.1489964497261602    
    0.4981158569447010        0.1542136014838694    
    0.5091850982101388        0.1594943842641545    
    0.5202543394755766        0.1648351482623938    
    0.5313235807410144        0.1702321829581276    
    0.5423928220064522        0.1756817213724147    
    0.5534620632718901        0.1811799445378873    
    0.5645313045373278        0.1867229861681178    
    0.5756005458027657        0.1923069375117462    
    0.5866697870682034        0.1979278523757079    
    0.5977390283336412        0.2035817523009240    
    0.6088082695990791        0.2092646318728798    
    0.6198775108645168        0.2149724641487253    
    0.6309467521299547        0.2207012061817983    
    0.6420159933953924        0.2264468046238907    
    0.6530852346608302        0.2322052013850626    
    0.6641544759262681        0.2379723393304486    
    0.6752237171917058        0.2437441679932291    
    0.6862929584571437        0.2495166492827887    
    0.6973621997225814        0.2552857631670727    
    0.7084314409880192        0.2610475133082275    
    0.7195006822534571        0.2667979326308340    
    0.7305699235188948        0.2725330888023595    
    0.7416391647843327        0.2782490896059002    
    0.7527084060497704        0.2839420881858473    
    0.7637776473152083        0.2896082881477384    
    0.7748468885806461        0.2952439484943805    
    0.7859161298460838        0.3008453883811194    
    0.7969853711115217        0.3064089916741699    
    0.8080546123769594        0.3119312112968894    
    0.8191238536423973        0.3174085733500829    
    0.8301930949078351        0.3228376809935586    
    0.8412623361732728        0.3282152180774747    
    0.8523315774387107        0.3335379525133266    
    0.8634008187041484        0.3388027393758095    
    0.8744700599695863        0.3440065237282045    
    0.8855393012350241        0.3491463431653935    
    0.8966085425004618        0.3542193300701253    
    0.9076777837658997        0.3592227135795789    
    0.9187470250313374        0.3641538212608597    
    0.9298162662967753        0.3690100804954795    
    0.9408855075622130        0.3737890195744438    
    0.9519547488276509        0.3784882685069462    
    0.9630239900930887        0.3831055595472143    
    0.9740932313585264        0.3876387274453308    
    0.9851624726239643        0.3920857094293096    
    0.9962317138894020        0.3964445449269289    
     1.007300955154840        0.4007133750371255    
     1.018370196420278        0.4048904417618499    
     1.029439437685715        0.4089740870103330    
     1.040508678951153        0.4129627513890043    
     1.051577920216591        0.4168549727906845    
     1.062647161482029        0.4206493847980489    
     1.073716402747467        0.4243447149167310    
     1.084785644012904        0.4279397826541634    
     1.095854885278342        0.4314334974607768    
     1.106924126543780        0.4348248565505572    
     1.117993367809218        0.4381129426182428    
     1.129062609074656        0.4412969214707077    
     1.140131850340093        0.4443760395899642    
     1.151201091605531        0.4473496216454296    
     1.162270332870969        0.4502170679727530    
     1.173339574136407        0.4529778520362757    
     1.184408815401845        0.4556315178919392    
     1.195478056667282        0.4581776776668186    
     1.206547297932720        0.4606160090710011    
     1.217616539198158        0.4629462529568649    
     1.228685780463596        0.4651682109400022    
     1.239755021729034        0.4672817430953278    
     1.250824262994471        0.4692867657405900    
     1.261893504259909        0.4711832493191003    
     1.272962745525347        0.4729712163920367    
     1.284031986790785        0.4746507397497637    
     1.295101228056223        0.4762219406499403    
     1.306170469321660        0.4776849871898497    
     1.317239710587098        0.4790400928186294    
     1.328308951852536        0.4802875149934676    
     1.339378193117974        0.4814275539831553    
     1.350447434383412        0.4824605518209507    
     1.361516675648849        0.4833868914073393    
     1.372585916914287        0.4842069957614645    
     1.383655158179725        0.4849213274197914    
     1.394724399445163        0.4855303879787549    
     1.405793640710601        0.4860347177763231    
     1.416862881976038        0.4864348957075003    
     1.427932123241476        0.4867315391667750    
     1.439001364506914        0.4869253041095014    
     1.450070605772352        0.4870168852239053    
     1.461139847037790        0.4870070162032231    
     1.472209088303227        0.4868964701081823    
     1.483278329568665        0.4866860598079061    
     1.494347570834103        0.4863766384869293    
     1.505416812099541        0.4859691002069617    
     1.516486053364979        0.4854643805080689    
     1.527555294630417        0.4848634570378850    
     1.538624535895854        0.4841673501937663    
     1.549693777161292        0.4833771237631521    
     1.560763018426730        0.4824938855503732    
     1.571832259692168        0.4815187879727141    
     1.582901500957606        0.4804530286136859    
     1.593970742223043        0.4792978507198032    
     1.605039983488481        0.4780545436241285    
     1.616109224753919        0.4767244430896370    
     1.627178466019357        0.4753089315518806    
     1.638247707284795        0.4738094382562738    
     1.649316948550232        0.4722274410938245    
     1.660386189815670        0.4705644826394241    
     1.671455431081108        0.4688221100025449    
     1.682524672346546        0.4670019386726302    
     1.693593913611984        0.4651056294297813    
     1.704663154877421        0.4631348878170570    
     1.715732396142859        0.4610914632482395    
     1.726801637408297        0.4589771479361030    
     1.737870878673735        0.4567937756427059    
     1.748940119939173        0.4545432202724893    
     1.760009361204610        0.4522273942171179    
     1.771078602470048        0.4498482466178861    
     1.782147843735486        0.4474077613679385    
     1.793217085000924        0.4449079547895591    
     1.804286326266362        0.4423508738206777    
     1.815355567531799        0.4397385930289885    
     1.826424808797237        0.4370732122450893    
     1.837494050062675        0.4343568541542815    
     1.848563291328113        0.4315916599639372    
     1.859632532593551        0.4287797874535852    
     1.870701773858988        0.4259234077109632    
     1.881771015124426        0.4230247012737113    
     1.892840256389864        0.4200858554975817    
     1.903909497655302        0.4171090605246957    
     1.914978738920740        0.4140965057013060    
     1.926047980186177        0.4110503759484972    
     1.937117221451615        0.4079728483363703    
     1.948186462717053        0.4048660883356763    
     1.959255703982491        0.4017322456497336    
     1.970324945247929        0.3985734508369008    
     1.981394186513366        0.3953918116479802    
     1.992463427778804        0.3921894091857297    
     2.003532669044242        0.3889682944665216    
     2.014601910309680        0.3857304849445142    
     2.025671151575117        0.3824779608806931    
     2.036740392840555        0.3792126620043980    
     2.047809634105993        0.3759364843938529    
     2.058878875371431        0.3726512773759730    
     2.069948116636869        0.3693588405413412    
     2.081017357902307        0.3660609209813647    
     2.092086599167744        0.3627592106909583    
     2.103155840433182        0.3594553441525450    
     2.114225081698620        0.3561508961184731    
     2.125294322964058        0.3528473796055268    
     2.136363564229495        0.3495462441076139    
     2.147432805494933        0.3462488740339181    
     2.158502046760371        0.3429565873841364    
     2.169571288025809        0.3396706346591867    
     2.180640529291247        0.3363921980219381    
     2.191709770556685        0.3331223906904411    
     2.202779011822122        0.3298622564895837    
     2.213848253087560        0.3266127699453644    
     2.224917494352998        0.3233748369715247    
     2.235986735618436        0.3201492950132187    
     2.247055976883873        0.3169369115116765    
     2.258125218149311        0.3137383842336100    
     2.269194459414749        0.3105543475931229    
     2.280263700680187        0.3073853825140959    
     2.291332941945625        0.3042320270717175    
     2.302402183211063        0.3010947865601206    
     2.313471424476500        0.2979741415754791    
     2.324540665741938        0.2948705498031684    
     2.335609907007376        0.2917844448753291    
     2.346679148272814        0.2887162357958336    
     2.357748389538251        0.2856663082830461    
     2.368817630803689        0.2826350258805142    
     2.379886872069127        0.2796227307599100    
     2.390956113334565        0.2766297443739314    
     2.402025354600003        0.2736563681808359    
     2.413094595865441        0.2707028843070019    
     2.424163837130878        0.2677695562212444    
     2.435233078396316        0.2648566293947627    
     2.446302319661754        0.2619643319326099    
     2.457371560927192        0.2590928751868629    
     2.468440802192629        0.2562424543504362    
     2.479510043458067        0.2534132490355434    
     2.490579284723505        0.2506054238344045    
     2.501648525988943        0.2478191288634226    
     2.512717767254381        0.2450545002901159    
     2.523787008519819        0.2423116608453660    
     2.534856249785256        0.2395907203197559    
     2.545925491050694        0.2368917760441633    
     2.556994732316132        0.2342149133573091    
     2.568063973581570        0.2315602060577285    
     2.579133214847007        0.2289277168421613    
     2.590202456112445        0.2263174977314483    
     2.601271697377883        0.2237295904817587    
     2.612340938643321        0.2211640269842131    
     2.623410179908759        0.2186208296523507    
     2.634479421174197        0.2161000117960445    
     2.645548662439634        0.2136015779854057    
     2.656617903705072        0.2111255244027418    
     2.667687144970510        0.2086718391823937    
     2.678756386235948        0.2062405027415617    
     2.689825627501385        0.2038314880996965    
     2.700894868766823        0.2014447611873086    
     2.711964110032261        0.1990802811460586    
     2.723033351297699        0.1967380006184568    
     2.734102592563137        0.1944178660281610    
     2.745171833828575        0.1921198178517760    
     2.756241075094013        0.1898437908814276    
     2.767310316359450        0.1875897144788315    
     2.778379557624888        0.1853575128211644    
     2.789448798890326        0.1831471051388238    
     2.800518040155763        0.1809584059454164    
     2.811587281421201        0.1787913252598907    
     2.822656522686639        0.1766457688215672    
     2.833725763952077        0.1745216382980752    
     2.844795005217515        0.1724188314857740    
     2.855864246482953        0.1703372425039388    
     2.866933487748391        0.1682767619825725    
     2.878002729013828        0.1662372772429723    
     2.889071970279266        0.1642186724727835    
     2.900141211544704        0.1622208288954980    
     2.911210452810141        0.1602436249328641    
     2.922279694075579        0.1582869363624218    
     2.933348935341017        0.1563506364702781    
     2.944418176606455        0.1544345961969903    
     2.955487417871893        0.1525386842791423    
     2.966556659137331        0.1506627673866461    
     2.977625900402769        0.1488067102538030    
     2.988695141668206        0.1469703758062735    
     2.999764382933644        0.1451536252841038    
     3.010833624199082        0.1433563183594538    
     3.021902865464519        0.1415783132502502    
     3.032972106729957        0.1398194668301041    
     3.044041347995395        0.1380796347339693    
     3.055110589260833        0.1363586714596567    
     3.066179830526271        0.1346564304659000    
     3.077249071791709        0.1329727642668744    
     3.088318313057147        0.1313075245227610    
     3.099387554322584        0.1296605621271724    
     3.110456795588022        0.1280317272912679    
     3.121526036853460        0.1264208696245477    
     3.132595278118897        0.1248278382126240    
     3.143664519384335        0.1232524816918732    
     3.154733760649773        0.1216946483212725    
     3.165803001915211        0.1201541860514538    
     3.176872243180649        0.1186309425909624    
     3.187941484446087        0.1171247654696609    
     3.199010725711525        0.1156355021000554    
     3.210079966976962        0.1141629998359152    
     3.221149208242400        0.1127071060281550    
     3.232218449507838        0.1112676680789595    
     3.243287690773276        0.1098445334934879    
     3.254356932038713        0.1084375499293043    
     3.265426173304151        0.1070465652435456    
     3.276495414569589        0.1056714275386256    
     3.287564655835027        0.1043119852056495    
     3.298633897100465        0.1029680869656579    
     3.309703138365903        0.1016395819095463    
     3.320772379631340        0.1003263195360237    
     3.331841620896778        0.9902814978771891E-01
     3.342910862162216        0.9774492308553136E-01
     3.353980103427654        0.9647649036228266E-01
     3.365049344693091        0.9522270309651833E-01
     3.376118585958529        0.9398341333703997E-01
     3.387187827223967        0.9275847373355726E-01
     3.398257068489405        0.9154773756430303E-01
     3.409326309754843        0.9035105874967181E-01
     3.420395551020281        0.8916829191567388E-01
     3.431464792285718        0.8799929238019588E-01
     3.442534033551156        0.8684391618984155E-01
     3.453603274816594        0.8570202013942667E-01
     3.464672516082032        0.8457346176360762E-01
     3.475741757347469        0.8345809939699050E-01
     3.486810998612907        0.8235579217880694E-01
     3.497880239878345        0.8126640006529078E-01
     3.508949481143783        0.8018978384548638E-01
     3.520018722409221        0.7912580515811700E-01
     3.531087963674659        0.7807432645287160E-01
     3.542157204940096        0.7703521116990306E-01
     3.553226446205534        0.7600832358806667E-01
     3.564295687470972        0.7499352886318232E-01
     3.575364928736410        0.7399069305899469E-01
     3.586434170001847        0.7299968316563912E-01
     3.597503411267285        0.7202036710722866E-01
     3.608572652532723        0.7105261374853789E-01
     3.619641893798161        0.7009629290058073E-01
     3.630711135063599        0.6915127532501426E-01
     3.641780376329037        0.6821743274179072E-01
     3.652849617594474        0.6729463783544010E-01
     3.663918858859912        0.6638276426077909E-01
     3.674988100125350        0.6548168664809872E-01
     3.686057341390788        0.6459128060715566E-01
     3.697126582656225        0.6371142273086494E-01
     3.708195823921663        0.6284199059853220E-01
     3.719265065187101        0.6198286277860988E-01
     3.730334306452539        0.6113391883102436E-01
     3.741403547717977        0.6029503930905138E-01
     3.752472788983415        0.5946610576076755E-01
     3.763542030248852        0.5864700073009455E-01
     3.774611271514290        0.5783760775745178E-01
     3.785680512779728        0.5703781138003442E-01
     3.796749754045166        0.5624749713172873E-01
     3.807818995310603        0.5546655154268058E-01
     3.818888236576041        0.5469486213853071E-01
     3.829957477841479        0.5393231743932916E-01
     3.841026719106917        0.5317880695814256E-01
     3.852095960372355        0.5243422119936614E-01
     3.863165201637793        0.5169845165675124E-01
     3.874234442903230        0.5097139081116261E-01
     3.885303684168668        0.5025293212807402E-01
     3.896372925434106        0.4954297005481368E-01
     3.907442166699544        0.4884140001757001E-01
     3.918511407964981        0.4814811841816811E-01
     3.929580649230419        0.4746302263062551E-01
     3.940649890495857        0.4678601099749800E-01
     3.951719131761295        0.4611698282602296E-01
     3.962788373026733        0.4545583838407052E-01
     3.973857614292171        0.4480247889590924E-01
     3.984926855557608        0.4415680653779667E-01
     3.995996096823046        0.4351872443340083E-01
     4.007065338088484        0.4288813664906027E-01
     4.018134579353922        0.4226494818889136E-01
     4.029203820619360        0.4164906498974864E-01
     4.040273061884797        0.4104039391604702E-01
     4.051342303150235        0.4043884275444881E-01
     4.062411544415673        0.3984432020842647E-01
     4.073480785681110        0.3925673589270381E-01
     4.084550026946548        0.3867600032758437E-01
     4.095619268211986        0.3810202493317007E-01
     4.106688509477424        0.3753472202347811E-01
     4.117757750742862        0.3697400480045926E-01
     4.128826992008300        0.3641978734792661E-01
     4.139896233273737        0.3587198462539500E-01
     4.150965474539175        0.3533051246183929E-01
     4.162034715804613        0.3479528754937648E-01
     4.173103957070051        0.3426622743687305E-01
     4.184173198335489        0.3374325052348640E-01
     4.195242439600927        0.3322627605214176E-01
     4.206311680866365        0.3271522410294799E-01
     4.217380922131802        0.3221001558655985E-01
     4.228450163397240        0.3171057223748794E-01
     4.239519404662678        0.3121681660736024E-01
     4.250588645928115        0.3072867205813953E-01
     4.261657887193553        0.3024606275530074E-01
     4.272727128458991        0.2976891366096977E-01
     4.283796369724429        0.2929715052702968E-01
     4.294865610989866        0.2883069988819548E-01
     4.305934852255304        0.2836948905506049E-01
     4.317004093520742        0.2791344610711924E-01
     4.328073334786180        0.2746249988576774E-01
     4.339142576051618        0.2701657998728493E-01
     4.350211817317056        0.2657561675579756E-01
     4.361281058582493        0.2613954127623168E-01
     4.372350299847931        0.2570828536725230E-01
     4.383419541113369        0.2528178157419474E-01
     4.394488782378807        0.2485996316198916E-01
     4.405558023644245        0.2444276410808112E-01
     4.416627264909683        0.2403011909534993E-01
     4.427696506175121        0.2362196350502723E-01
     4.438765747440558        0.2321823340961709E-01
     4.449834988705996        0.2281886556582067E-01
     4.460904229971434        0.2242379740746667E-01
     4.471973471236871        0.2203296703845003E-01
     4.483042712502309        0.2164631322567875E-01
     4.494111953767747        0.2126377539203230E-01
     4.505181195033185        0.2088529360933415E-01
     4.516250436298622        0.2051080859133689E-01
     4.527319677564060        0.2014026168672426E-01
     4.538388918829498        0.1977359487212989E-01
     4.549458160094936        0.1941075074517359E-01
     4.560527401360374        0.1905167251752002E-01
     4.571596642625812        0.1869630400795680E-01
     4.582665883891250        0.1834458963549561E-01
     4.593735125156687        0.1799647441249652E-01
     4.604804366422125        0.1765190393781561E-01
     4.615873607687563        0.1731082438998209E-01
     4.626942848953001        0.1697318252039851E-01
     4.638012090218439        0.1663892564657093E-01
     4.649081331483877        0.1630800164536594E-01
     4.660150572749314        0.1598035894629703E-01
     4.671219814014752        0.1565594652484407E-01
     4.682289055280190        0.1533471389580125E-01
     4.693358296545627        0.1501661110665817E-01
     4.704427537811065        0.1470158873101233E-01
     4.715496779076503        0.1438959786201457E-01
     4.726566020341941        0.1408059010585085E-01
     4.737635261607378        0.1377451757525666E-01
     4.748704502872816        0.1347133288306687E-01
     4.759773744138254        0.1317098913580096E-01
     4.770842985403692        0.1287343992728205E-01
     4.781912226669130        0.1257863933229759E-01
     4.792981467934568        0.1228654190029312E-01
     4.804050709200006        0.1199710264910432E-01
     4.815119950465443        0.1171027705872747E-01
     4.826189191730881        0.1142602106512418E-01
     4.837258432996319        0.1114429105407038E-01
     4.848327674261757        0.1086504385504055E-01
     4.859396915527195        0.1058823673513073E-01
     4.870466156792633        0.1031382739302285E-01
     4.881535398058070        0.1004177395298239E-01
     4.892604639323508        0.9772034958903369E-02
     4.903673880588946        0.9504569368388966E-02
     4.914743121854383        0.9239336546871835E-02
     4.925812363119821        0.8976296261775936E-02
     4.936881604385259        0.8715408676714479E-02
     4.947950845650697        0.8456634345732046E-02
     4.959020086916134        0.8199934207585838E-02
     4.970089328181572        0.7945269580066234E-02
     4.981158569447010        0.7692602154358096E-02
     4.992227810712448        0.7441893989441407E-02
     5.003297051977886        0.7193107506530825E-02
     5.014366293243324        0.6946205485014381E-02
     5.025435534508762        0.6701151139542745E-02
     5.036504775774199        0.6457909118179646E-02
     5.047574017039637        0.6216449898895957E-02
     5.058643258305075        0.5976759376212736E-02
     5.069712499570513        0.5738851728907516E-02
     5.080781740835951        0.5502781521834354E-02
     5.091850982101389        0.5268651914083543E-02
     5.102920223366826        0.5036617841863476E-02
     5.113989464632264        0.4806884559178364E-02
     5.125058705897701        0.4579702630560832E-02
     5.136127947163139        0.4355360607651088E-02
     5.147197188428577        0.4134176470988645E-02
     5.158266429694015        0.3916488671404992E-02
     5.169335670959453        0.3702647359782287E-02
     5.180404912224891        0.3493006188465021E-02
     5.191474153490328        0.3287914910742919E-02
     5.202543394755766        0.3087712891916239E-02
     5.213612636021204        0.2892723567921465E-02
     5.224681877286642        0.2703249836500550E-02
     5.235751118552080        0.2519570334039671E-02
     5.246820359817518        0.2341936532708968E-02
     5.257889601082955        0.2170570583131382E-02
     5.268958842348393        0.2005663824417455E-02
     5.280028083613831        0.1847375883899006E-02
     5.291097324879269        0.1695834291766236E-02
     5.302166566144707        0.1551134540049424E-02
     5.313235807410145        0.1413340520307476E-02
     5.324305048675583        0.1282485279506072E-02
     5.335374289941020        0.1158572038572033E-02
     5.346443531206457        0.1041575422754662E-02
     5.357512772471895        0.9314428569924949E-03
     5.368582013737333        0.8280960827479301E-03
     5.379651255002771        0.7314327549288056E-03
     5.390720496268209        0.6413280780559863E-03
     5.401789737533647        0.5576364389239158E-03
     5.412858978799084        0.4801929870633181E-03
     5.423928220064522        0.4088151013719895E-03
     5.434997461329960        0.3433036553311680E-03
     5.446066702595398        0.2834439415232244E-03
     5.457135943860836        0.2290060096741675E-03
     5.468205185126274        0.1797439392714091E-03
     5.479274426391711        0.1353930097663406E-03
     5.490343667657149        0.9566221972252976E-04
     5.501412908922587        0.6021471235114303E-04
     5.512482150188025        0.2860765346673652E-04
     5.523551391453463         0.000000000000000    
  0  5  2  0  0.000000   #orbital l, n, z, is_polarized, population
 500    0.7458061776035262E-02     3.721572826241596     # npts, delta, cutoff
     0.000000000000000       -0.3506190972100695    
    0.7458061776035262E-02   -0.3505573104768828    
    0.1491612355207052E-01   -0.3503683977932972    
    0.2237418532810579E-01   -0.3500535840502533    
    0.2983224710414105E-01   -0.3496129323811719    
    0.3729030888017631E-01   -0.3490465307936800    
    0.4474837065621157E-01   -0.3483544925349729    
    0.5220643243224683E-01   -0.3475369562567432    
    0.5966449420828210E-01   -0.3465940861786990    